 Entering Gaussian System, Link 0=g09
 Initial command:
 /usr/local/Chem/g09/l1.exe "/scratch/gabriel/149473/Gau-4191204.inp" -scrdir="/scratch/gabriel/149473/"
 Entering Link 1 = /usr/local/Chem/g09/l1.exe PID=   4191205.
  
 Copyright (c) 1988,1990,1992,1993,1995,1998,2003,2009,2015,
            Gaussian, Inc.  All Rights Reserved.
  
 This is part of the Gaussian(R) 09 program.  It is based on
 the Gaussian(R) 03 system (copyright 2003, Gaussian, Inc.),
 the Gaussian(R) 98 system (copyright 1998, Gaussian, Inc.),
 the Gaussian(R) 94 system (copyright 1995, Gaussian, Inc.),
 the Gaussian 92(TM) system (copyright 1992, Gaussian, Inc.),
 the Gaussian 90(TM) system (copyright 1990, Gaussian, Inc.),
 the Gaussian 88(TM) system (copyright 1988, Gaussian, Inc.),
 the Gaussian 86(TM) system (copyright 1986, Carnegie Mellon
 University), and the Gaussian 82(TM) system (copyright 1983,
 Carnegie Mellon University). Gaussian is a federally registered
 trademark of Gaussian, Inc.
  
 This software contains proprietary and confidential information,
 including trade secrets, belonging to Gaussian, Inc.
  
 This software is provided under written license and may be
 used, copied, transmitted, or stored only in accord with that
 written license.
  
 The following legend is applicable only to US Government
 contracts under FAR:
  
                    RESTRICTED RIGHTS LEGEND
  
 Use, reproduction and disclosure by the US Government is
 subject to restrictions as set forth in subparagraphs (a)
 and (c) of the Commercial Computer Software - Restricted
 Rights clause in FAR 52.227-19.
  
 Gaussian, Inc.
 340 Quinnipiac St., Bldg. 40, Wallingford CT 06492
  
  
 ---------------------------------------------------------------
 Warning -- This program may not be used in any manner that
 competes with the business of Gaussian, Inc. or will provide
 assistance to any competitor of Gaussian, Inc.  The licensee
 of this program is prohibited from giving any competitor of
 Gaussian, Inc. access to this program.  By using this program,
 the user acknowledges that Gaussian, Inc. is engaged in the
 business of creating and licensing software in the field of
 computational chemistry and represents and warrants to the
 licensee that it is not a competitor of Gaussian, Inc. and that
 it will not use this program in any manner prohibited above.
 ---------------------------------------------------------------
  

 Cite this work as:
 Gaussian 09, Revision E.01,
 M. J. Frisch, G. W. Trucks, H. B. Schlegel, G. E. Scuseria, 
 M. A. Robb, J. R. Cheeseman, G. Scalmani, V. Barone, B. Mennucci, 
 G. A. Petersson, H. Nakatsuji, M. Caricato, X. Li, H. P. Hratchian, 
 A. F. Izmaylov, J. Bloino, G. Zheng, J. L. Sonnenberg, M. Hada, 
 M. Ehara, K. Toyota, R. Fukuda, J. Hasegawa, M. Ishida, T. Nakajima, 
 Y. Honda, O. Kitao, H. Nakai, T. Vreven, J. A. Montgomery, Jr., 
 J. E. Peralta, F. Ogliaro, M. Bearpark, J. J. Heyd, E. Brothers, 
 K. N. Kudin, V. N. Staroverov, T. Keith, R. Kobayashi, J. Normand, 
 K. Raghavachari, A. Rendell, J. C. Burant, S. S. Iyengar, J. Tomasi, 
 M. Cossi, N. Rega, J. M. Millam, M. Klene, J. E. Knox, J. B. Cross, 
 V. Bakken, C. Adamo, J. Jaramillo, R. Gomperts, R. E. Stratmann, 
 O. Yazyev, A. J. Austin, R. Cammi, C. Pomelli, J. W. Ochterski, 
 R. L. Martin, K. Morokuma, V. G. Zakrzewski, G. A. Voth, 
 P. Salvador, J. J. Dannenberg, S. Dapprich, A. D. Daniels, 
 O. Farkas, J. B. Foresman, J. V. Ortiz, J. Cioslowski, 
 and D. J. Fox, Gaussian, Inc., Wallingford CT, 2013.
 
 ******************************************
 Gaussian 09:  ES64L-G09RevE.01 30-Nov-2015
                11-Feb-2022 
 ******************************************
 %nprocshared=8
 Will use up to    8 processors via shared memory.
 %mem=512Mb
 -------------------------------------------------------
 #n m062x/6-311G(d,p) SP scf=maxcycle=1000 maxdisk=100Gb
 -------------------------------------------------------
 1/38=1/1;
 2/12=2,17=6,18=5,40=1/2;
 3/5=4,6=6,7=101,11=2,16=1,25=1,30=1,74=-55/1,2,3;
 4//1;
 5/5=2,7=1000,38=5/2;
 6/7=2,8=2,9=2,10=2,28=1/1;
 99/5=1,9=1/99;
 --------------
 chembl344174sp
 --------------
 Symbolic Z-matrix:
 Charge = -1 Multiplicity = 2
 N                     3.22224   2.54684   1.62769 
 C                     2.84302   2.33064   0.56598 
 C                     2.36741   2.03207  -0.79877 
 N                     1.1637    1.23453  -0.80485 
 C                    -0.04296   1.82018  -0.55219 
 O                    -0.1833    3.01946  -0.46885 
 C                    -1.19885   0.82551  -0.345 
 C                    -2.54352   1.55038  -0.38933 
 C                    -3.70197   0.59099  -0.29309 
 C                    -4.37974   0.39755   0.9087 
 C                    -5.42705  -0.51331   0.99691 
 C                    -5.80965  -1.24524  -0.12083 
 C                    -5.14113  -1.05958  -1.32675 
 C                    -4.09632  -0.14782  -1.40955 
 N                    -1.02765   0.15081   0.93624 
 C                    -0.21953  -0.91732   1.16921 
 O                     0.09269  -1.32471   2.25751 
 O                     0.18808  -1.47752  -0.00242 
 C                     1.2055   -2.49242   0.09875 
 C                     2.55762  -1.8599   -0.10989 
 C                     3.17578  -1.16523   0.93318 
 C                     4.39456  -0.52877   0.72405 
 C                     5.00368  -0.57991  -0.52703 
 C                     4.38887  -1.26218  -1.57275 
 C                     3.16753  -1.89636  -1.36348 
 H                     3.15682   1.4954   -1.32723 
 H                     2.1704    2.97863  -1.30431 
 H                     1.24777   0.22809  -0.76842 
 H                    -1.1638    0.06042  -1.12263 
 H                    -2.57241   2.28785   0.41723 
 H                    -2.58834   2.11765  -1.32152 
 H                    -4.09117   0.9725    1.78283 
 H                    -5.9441   -0.64974   1.93922 
 H                    -6.62641  -1.95374  -0.05432 
 H                    -5.4376   -1.62188  -2.20445 
 H                    -3.58402   0.00063  -2.35555 
 H                    -1.27961   0.65717   1.77327 
 H                     0.97926  -3.20813  -0.69019 
 H                     1.12776  -2.97214   1.07336 
 H                     2.69268  -1.12144   1.90389 
 H                     4.86022   0.01722   1.53521 
 H                     5.95712  -0.08949  -0.68495 
 H                     4.86123  -1.30671  -2.54697 
 H                     2.68702  -2.43093  -2.17663 
 
                          Input orientation:                          
 ---------------------------------------------------------------------
 Center     Atomic      Atomic             Coordinates (Angstroms)
 Number     Number       Type             X           Y           Z
 ---------------------------------------------------------------------
      1          7           0        3.222240    2.546840    1.627690
      2          6           0        2.843020    2.330640    0.565980
      3          6           0        2.367410    2.032070   -0.798770
      4          7           0        1.163700    1.234530   -0.804850
      5          6           0       -0.042960    1.820180   -0.552190
      6          8           0       -0.183300    3.019460   -0.468850
      7          6           0       -1.198850    0.825510   -0.345000
      8          6           0       -2.543520    1.550380   -0.389330
      9          6           0       -3.701970    0.590990   -0.293090
     10          6           0       -4.379740    0.397550    0.908700
     11          6           0       -5.427050   -0.513310    0.996910
     12          6           0       -5.809650   -1.245240   -0.120830
     13          6           0       -5.141130   -1.059580   -1.326750
     14          6           0       -4.096320   -0.147820   -1.409550
     15          7           0       -1.027650    0.150810    0.936240
     16          6           0       -0.219530   -0.917320    1.169210
     17          8           0        0.092690   -1.324710    2.257510
     18          8           0        0.188080   -1.477520   -0.002420
     19          6           0        1.205500   -2.492420    0.098750
     20          6           0        2.557620   -1.859900   -0.109890
     21          6           0        3.175780   -1.165230    0.933180
     22          6           0        4.394560   -0.528770    0.724050
     23          6           0        5.003680   -0.579910   -0.527030
     24          6           0        4.388870   -1.262180   -1.572750
     25          6           0        3.167530   -1.896360   -1.363480
     26          1           0        3.156820    1.495400   -1.327230
     27          1           0        2.170400    2.978630   -1.304310
     28          1           0        1.247770    0.228090   -0.768420
     29          1           0       -1.163800    0.060420   -1.122630
     30          1           0       -2.572410    2.287850    0.417230
     31          1           0       -2.588340    2.117650   -1.321520
     32          1           0       -4.091170    0.972500    1.782830
     33          1           0       -5.944100   -0.649740    1.939220
     34          1           0       -6.626410   -1.953740   -0.054320
     35          1           0       -5.437600   -1.621880   -2.204450
     36          1           0       -3.584020    0.000630   -2.355550
     37          1           0       -1.279610    0.657170    1.773270
     38          1           0        0.979260   -3.208130   -0.690190
     39          1           0        1.127760   -2.972140    1.073360
     40          1           0        2.692680   -1.121440    1.903890
     41          1           0        4.860220    0.017220    1.535210
     42          1           0        5.957120   -0.089490   -0.684950
     43          1           0        4.861230   -1.306710   -2.546970
     44          1           0        2.687020   -2.430930   -2.176630
 ---------------------------------------------------------------------
                    Distance matrix (angstroms):
                    1          2          3          4          5
     1  N    0.000000
     2  C    1.147945   0.000000
     3  C    2.623629   1.475768   0.000000
     4  N    3.446302   2.429145   1.443961   0.000000
     5  C    3.992674   3.136838   2.432197   1.364863   0.000000
     6  O    4.026978   3.271691   2.754979   2.261256   1.210336
     7  C    5.138144   4.408176   3.792084   2.441393   1.538953
     8  C    6.189127   5.525960   4.951454   3.743781   2.520340
     9  C    7.447109   6.826513   6.258578   4.934652   3.868643
    10  C    7.932622   7.484822   7.149206   5.862296   4.792258
    11  C    9.196337   8.756016   8.393869   7.052607   6.069045
    12  C    9.950489   9.387615   8.835422   7.432681   6.545043
    13  C    9.575016   8.878213   8.137274   6.729502   5.906293
    14  C    8.369429   7.628887   6.848706   5.472144   4.586700
    15  N    4.927538   4.457672   4.251568   3.001309   2.443734
    16  C    4.904731   4.504702   4.389089   3.231207   3.238565
    17  O    5.017933   4.877209   5.077713   4.132169   4.219378
    18  O    5.297061   4.676951   4.207241   2.991813   3.351187
    19  C    5.639064   5.114849   4.756741   3.835153   4.536617
    20  C    4.783332   4.254278   3.957040   3.464315   4.527873
    21  C    3.776767   3.530817   3.725029   3.581628   4.634575
    22  C    3.413250   3.257067   3.603640   3.985626   5.180535
    23  C    4.194391   3.786083   3.721048   4.256151   5.588349
    24  C    5.110037   4.457822   3.941755   4.150296   5.493961
    25  C    5.356502   4.657859   4.048660   3.758973   4.977761
    26  H    3.137094   2.092926   1.091079   2.076887   3.308287
    27  H    3.144747   2.090525   1.091036   2.074799   2.608956
    28  H    3.875110   2.957391   2.123407   1.010602   2.060944
    29  H    5.743160   4.905090   4.057306   2.626171   2.162970
    30  H    5.925391   5.417642   5.093712   4.069580   2.748928
    31  H    6.530305   5.753928   4.983979   3.889043   2.675690
    32  H    7.482552   7.169955   7.035666   5.863310   4.749619
    33  H    9.712722   9.379868   9.152589   7.848644   6.865208
    34  H   10.958115  10.412050   9.865581   8.450691   7.604746
    35  H   10.346804   9.584694   8.731865   7.327695   6.609076
    36  H    8.287012   7.434455   6.478413   5.144708   4.370581
    37  H    4.884537   4.610220   4.669742   3.598585   2.879177
    38  H    6.597212   5.977419   5.422033   4.447965   5.133019
    39  H    5.929019   5.596341   5.484863   4.607064   5.194163
    40  H    3.716584   3.705329   4.165909   3.902005   4.708416
    41  H    3.015047   3.218760   3.964995   4.541144   5.625751
    42  H    4.447259   4.137569   4.171329   4.974362   6.298049
    43  H    5.913030   5.195570   4.519158   4.812963   6.148794
    44  H    6.287886   5.497162   4.681775   4.199748   5.306932
                    6          7          8          9         10
     6  O    0.000000
     7  C    2.420764   0.000000
     8  C    2.781215   1.528247   0.000000
     9  C    4.278948   2.514618   1.507215   0.000000
    10  C    5.136357   3.445718   2.526975   1.393230   0.000000
    11  C    6.490441   4.633663   3.807259   2.420636   1.390793
    12  C    7.068564   5.059420   4.307573   2.800666   2.409011
    13  C    6.477240   4.478724   3.799766   2.421573   2.774920
    14  C    5.121358   3.236660   2.517125   1.395649   2.398341
    15  N    3.303991   1.458117   2.452304   2.976071   3.361272
    16  C    4.264128   2.507859   3.730887   4.067027   4.370823
    17  O    5.136246   3.614496   4.713969   4.957309   4.978765
    18  O    4.536332   2.710144   4.096281   4.415395   5.021056
    19  C    5.712421   4.121465   5.535125   5.808977   6.340572
    20  C    5.607999   4.623610   6.142453   6.724797   7.366177
    21  C    5.546236   4.973347   6.467918   7.203575   7.715489
    22  C    5.913523   5.853476   7.327990   8.236640   8.824993
    23  C    6.313764   6.362367   7.843298   8.787154   9.542815
    24  C    6.360485   6.090027   7.574233   8.398420   9.262873
    25  C    6.016121   5.245107   6.741296   7.383947   8.208904
    26  H    3.770408   4.515018   5.777245   6.995027   7.937531
    27  H    2.497912   4.111940   5.009803   6.419355   7.379954
    28  H    3.151103   2.553849   4.033118   4.985736   5.874548
    29  H    3.185079   1.091467   2.159013   2.722489   3.818668
    30  H    2.651082   2.146183   1.093268   2.158656   2.661056
    31  H    2.706386   2.133987   1.092146   2.151402   3.337924
    32  H    4.952934   3.593714   2.729001   2.146269   1.085331
    33  H    7.242144   5.469133   4.671897   3.398495   2.146162
    34  H    8.149737   6.104681   5.390833   3.883943   3.391681
    35  H    7.222327   5.235864   4.661930   3.400368   3.858610
    36  H    4.923197   3.226728   2.711160   2.148529   3.383200
    37  H    3.436482   2.126483   2.659348   3.184659   3.228884
    38  H    6.339039   4.597126   5.928230   6.041930   6.654041
    39  H    6.324283   4.674078   6.005909   6.155434   6.458675
    40  H    5.572092   4.898176   6.309934   6.975004   7.301839
    41  H    6.202161   6.395377   7.801910   8.773995   9.268982
    42  H    6.886002   7.222236   8.662416   9.690956  10.470320
    43  H    6.962874   6.791142   8.224883   9.055917  10.012077
    44  H    6.392339   5.390664   6.812035   7.314295   8.213322
                   11         12         13         14         15
    11  C    0.000000
    12  C    1.389765   0.000000
    13  C    2.404071   1.391270   0.000000
    14  C    2.774072   2.408450   1.389169   0.000000
    15  N    4.449658   5.092531   4.848390   3.874099   0.000000
    16  C    5.226010   5.746406   5.520163   4.719283   1.359498
    17  O    5.719704   6.363995   6.349022   5.690361   2.275538
    18  O    5.784293   6.003394   5.507177   4.701510   2.238424
    19  C    6.979562   7.128534   6.660690   5.990110   3.560198
    20  C    8.172715   8.389823   7.835305   6.992514   4.241639
    21  C    8.627731   9.047391   8.619132   7.707590   4.404633
    22  C    9.825412  10.264164   9.768159   8.763128   5.468749
    23  C   10.541677  10.841391  10.187581   9.152898   6.249164
    24  C   10.174293  10.301367   9.535327   8.559608   6.134351
    25  C    9.019483   9.086138   8.350771   7.471481   5.203763
    26  H    9.116982   9.453258   8.682390   7.437405   4.943785
    27  H    8.672399   9.106201   8.352611   7.004109   4.821219
    28  H    6.944011   7.238595   6.541244   5.395522   2.844182
    29  H    4.795510   4.928719   4.137054   2.953872   2.065346
    30  H    4.041225   4.822028   4.565641   3.404690   2.687489
    31  H    4.511690   4.809108   4.075727   2.722886   3.376639
    32  H    2.147062   3.390496   3.860214   3.383258   3.282841
    33  H    1.083468   2.148605   3.388110   3.857522   5.081174
    34  H    2.149043   1.083279   2.150502   3.391069   6.062710
    35  H    3.387882   2.149826   1.083713   2.145635   5.696843
    36  H    3.860037   3.391105   2.146408   1.086004   4.170547
    37  H    4.378815   5.265742   5.241058   4.325761   1.010200
    38  H    7.151865   7.089881   6.517718   5.970301   4.237386
    39  H    7.001230   7.248167   6.979785   6.436819   3.797027
    40  H    8.192829   8.740963   8.474045   7.616912   4.049175
    41  H   10.314997  10.871173  10.458361   9.429658   5.919766
    42  H   11.515537  11.836844  11.159038  10.079688   7.174470
    43  H   10.910420  10.943382  10.079544   9.103541   6.995429
    44  H    8.921141   8.821880   7.992673   7.198243   5.491276
                   16         17         18         19         20
    16  C    0.000000
    17  O    1.203264   0.000000
    18  O    1.361134   2.267098   0.000000
    19  C    2.378557   2.694835   1.440625   0.000000
    20  C    3.199549   3.459319   2.402599   1.507263   0.000000
    21  C    3.412521   3.359275   3.146303   2.517878   1.397384
    22  C    4.651770   4.635850   4.372912   3.796976   2.416963
    23  C    5.502090   5.694402   4.926553   4.298310   2.792058
    24  C    5.373511   5.756037   4.489871   3.800164   2.418823
    25  C    4.341107   4.784662   3.302277   2.518525   1.394564
    26  H    4.842847   5.494750   4.405314   4.663022   3.619253
    27  H    5.196970   5.960048   5.047948   5.729921   4.998795
    28  H    2.686884   3.591887   2.149140   2.855686   2.551288
    29  H    2.664611   3.862991   2.334033   3.690846   4.308392
    30  H    4.046558   4.851802   4.687688   6.101231   6.618073
    31  H    4.585416   5.643334   4.730093   6.137030   6.615879
    32  H    4.351729   4.796580   5.244206   6.549543   7.470695
    33  H    5.782319   6.082740   6.485277   7.609177   8.828510
    34  H    6.604491   7.133480   6.831307   7.851906   9.184678
    35  H    6.253498   7.112068   6.043017   7.084726   8.268457
    36  H    4.958463   6.046077   4.685177   5.931137   6.798846
    37  H    1.991903   2.458769   3.140715   4.347379   4.960470
    38  H    3.184694   3.608630   2.023365   1.088968   2.155387
    39  H    2.458996   2.277632   2.067411   1.089054   2.163714
    40  H    3.010380   2.631789   3.167622   2.711055   2.149157
    41  H    5.177951   5.005181   5.140763   4.660331   3.395865
    42  H    6.501863   6.676480   5.972796   5.382021   3.875777
    43  H    6.306801   6.769219   5.323743   4.665844   3.398823
    44  H    4.683342   5.255080   3.446865   2.715886   2.148077
                   21         22         23         24         25
    21  C    0.000000
    22  C    1.390770   0.000000
    23  C    2.411645   1.392424   0.000000
    24  C    2.785798   2.411061   1.391767   0.000000
    25  C    2.410242   2.780951   2.409177   1.391995   0.000000
    26  H    3.491241   3.136401   2.891042   3.030260   3.391971
    27  H    4.815467   4.622011   4.614634   4.793552   4.976273
    28  H    2.924723   3.564069   3.849415   3.568524   2.924528
    29  H    4.955858   5.886658   6.229171   5.725733   4.758930
    30  H    6.725448   7.521048   8.155539   8.063631   7.322940
    31  H    7.006144   7.742660   8.096099   7.756792   7.017412
    32  H    7.622359   8.682306   9.511137   9.389611   8.415364
    33  H    9.189671  10.410531  11.222351  10.930658   9.771576
    34  H    9.883311  11.139936  11.720489  11.140928   9.881217
    35  H    9.178429  10.317091  10.626371   9.853321   8.650482
    36  H    7.607225   8.568660   8.799381   8.110144   7.082810
    37  H    4.886450   5.890969   6.804519   6.856487   6.011387
    38  H    3.410787   4.565448   4.809378   4.023813   2.638671
    39  H    2.734769   4.094393   4.827708   4.534391   3.355019
    40  H    1.085164   2.153991   3.397550   3.870904   3.391414
    41  H    2.144287   1.083017   2.151739   3.393884   3.863857
    42  H    3.392847   2.149382   1.083743   2.150069   3.392196
    43  H    3.869393   3.394487   2.151439   1.083610   2.148710
    44  H    3.392905   3.866245   3.393283   2.151033   1.085296
                   26         27         28         29         30
    26  H    0.000000
    27  H    1.781438   0.000000
    28  H    2.358562   2.950236   0.000000
    29  H    4.557278   4.434619   2.443204   0.000000
    30  H    6.041125   5.092654   4.499128   3.052343   0.000000
    31  H    5.778762   4.836030   4.311855   2.510193   1.747133
    32  H    7.904382   7.263763   5.963833   4.224107   2.429329
    33  H    9.904447   9.462065   7.734655   5.721059   4.723789
    34  H   10.451242  10.162412   8.202014   5.919310   5.886286
    35  H    9.184280   8.936252   7.083696   4.718669   5.510763
    36  H    6.980738   6.564064   5.090866   2.716824   3.734038
    37  H    5.477010   5.173320   3.609979   2.959013   2.483806
    38  H    5.222143   6.330241   3.447583   3.932319   6.636756
    39  H    5.462493   6.492463   3.694324   4.389765   6.464461
    40  H    4.183708   5.232198   3.324190   5.042723   6.446285
    41  H    3.644194   4.905910   4.289635   6.584436   7.851728
    42  H    3.281171   4.912862   4.720784   7.135933   8.922972
    43  H    3.499228   5.210461   4.309982   6.340250   8.773047
    44  H    4.044535   5.503742   3.335399   4.706013   7.527058
                   31         32         33         34         35
    31  H    0.000000
    32  H    3.634124   0.000000
    33  H    5.436175   2.467685   0.000000
    34  H    5.872650   4.285492   2.477936   0.000000
    35  H    4.783506   4.943894   4.286210   2.479205   0.000000
    36  H    2.557806   4.281112   4.943481   4.286182   2.468021
    37  H    3.663810   2.829204   4.846960   6.224565   6.189120
    38  H    6.441295   7.021592   7.835309   7.734600   6.781244
    39  H    6.741722   6.580332   7.493628   7.901642   7.461313
    40  H    6.984565   7.100694   8.649724   9.558909   9.123067
    41  H    8.249470   9.005624  10.832423  11.762396  11.077762
    42  H    8.848818  10.401245  12.199967  12.736497  11.597273
    43  H    8.289998  10.202325  11.718049  11.772758  10.309343
    44  H    7.017850   8.555964   9.726720   9.564094   8.164851
                   36         37         38         39         40
    36  H    0.000000
    37  H    4.773731   0.000000
    38  H    5.821777   5.109958   0.000000
    39  H    6.541839   4.411031   1.785456   0.000000
    40  H    7.668040   4.354263   3.744240   2.562000   0.000000
    41  H    9.297498   6.177679   5.515173   4.804252   2.476025
    42  H    9.686711   7.679232   5.874098   5.892711   4.292270
    43  H    8.547984   7.760877   4.704543   5.460700   4.954502
    44  H    6.728331   6.393139   2.393739   3.645084   4.285492
                   41         42         43         44
    41  H    0.000000
    42  H    2.478646   0.000000
    43  H    4.291502   2.479862   0.000000
    44  H    4.949141   4.289639   2.475522   0.000000
 Stoichiometry    C19H19N3O3(1-,2)
 Framework group  C1[X(C19H19N3O3)]
 Deg. of freedom   126
 Full point group                 C1      NOp   1
 Largest Abelian subgroup         C1      NOp   1
 Largest concise Abelian subgroup C1      NOp   1
                         Standard orientation:                         
 ---------------------------------------------------------------------
 Center     Atomic      Atomic             Coordinates (Angstroms)
 Number     Number       Type             X           Y           Z
 ---------------------------------------------------------------------
      1          7           0        3.222239    2.546839    1.627690
      2          6           0        2.843019    2.330639    0.565980
      3          6           0        2.367409    2.032069   -0.798770
      4          7           0        1.163699    1.234529   -0.804850
      5          6           0       -0.042961    1.820179   -0.552190
      6          8           0       -0.183301    3.019459   -0.468850
      7          6           0       -1.198851    0.825509   -0.345000
      8          6           0       -2.543521    1.550379   -0.389330
      9          6           0       -3.701971    0.590989   -0.293090
     10          6           0       -4.379741    0.397549    0.908700
     11          6           0       -5.427051   -0.513311    0.996910
     12          6           0       -5.809651   -1.245241   -0.120830
     13          6           0       -5.141131   -1.059581   -1.326750
     14          6           0       -4.096321   -0.147821   -1.409550
     15          7           0       -1.027651    0.150809    0.936240
     16          6           0       -0.219531   -0.917321    1.169210
     17          8           0        0.092689   -1.324711    2.257510
     18          8           0        0.188079   -1.477521   -0.002420
     19          6           0        1.205499   -2.492421    0.098750
     20          6           0        2.557619   -1.859901   -0.109890
     21          6           0        3.175779   -1.165231    0.933180
     22          6           0        4.394559   -0.528771    0.724050
     23          6           0        5.003679   -0.579911   -0.527030
     24          6           0        4.388869   -1.262181   -1.572750
     25          6           0        3.167529   -1.896361   -1.363480
     26          1           0        3.156819    1.495399   -1.327230
     27          1           0        2.170399    2.978629   -1.304310
     28          1           0        1.247769    0.228089   -0.768420
     29          1           0       -1.163801    0.060419   -1.122630
     30          1           0       -2.572411    2.287849    0.417230
     31          1           0       -2.588341    2.117649   -1.321520
     32          1           0       -4.091171    0.972499    1.782830
     33          1           0       -5.944101   -0.649741    1.939220
     34          1           0       -6.626411   -1.953741   -0.054320
     35          1           0       -5.437601   -1.621881   -2.204450
     36          1           0       -3.584021    0.000629   -2.355550
     37          1           0       -1.279611    0.657169    1.773270
     38          1           0        0.979259   -3.208131   -0.690190
     39          1           0        1.127759   -2.972141    1.073360
     40          1           0        2.692679   -1.121441    1.903890
     41          1           0        4.860219    0.017219    1.535210
     42          1           0        5.957119   -0.089491   -0.684950
     43          1           0        4.861229   -1.306711   -2.546970
     44          1           0        2.687019   -2.430931   -2.176630
 ---------------------------------------------------------------------
 Rotational constants (GHZ):      0.4247258      0.1312404      0.1172840
 Standard basis: 6-311G(d,p) (5D, 7F)
 There are   589 symmetry adapted cartesian basis functions of A   symmetry.
 There are   564 symmetry adapted basis functions of A   symmetry.
   564 basis functions,   952 primitive gaussians,   589 cartesian basis functions
    90 alpha electrons       89 beta electrons
       nuclear repulsion energy      2156.4219510500 Hartrees.
 NAtoms=   44 NActive=   44 NUniq=   44 SFac= 1.00D+00 NAtFMM=   60 NAOKFM=F Big=F
 Integral buffers will be    131072 words long.
 Raffenetti 2 integral format.
 Two-electron integral symmetry is turned on.
 One-electron integrals computed using PRISM.
 NBasis=   564 RedAO= T EigKep=  1.79D-04  NBF=   564
 NBsUse=   564 1.00D-06 EigRej= -1.00D+00 NBFU=   564
 ExpMin= 1.03D-01 ExpMax= 8.59D+03 ExpMxC= 1.30D+03 IAcc=1 IRadAn=         1 AccDes= 0.00D+00
 Harris functional with IExCor= 1009 and IRadAn=       1 diagonalized for initial guess.
 HarFok:  IExCor= 1009 AccDes= 0.00D+00 IRadAn=         1 IDoV= 1 UseB2=F ITyADJ=14
 ICtDFT=  3500011 ScaDFX=  1.000000  1.000000  1.000000  1.000000
 FoFCou: FMM=F IPFlag=           0 FMFlag=      100000 FMFlg1=           0
         NFxFlg=           0 DoJE=T BraDBF=F KetDBF=T FulRan=T
         wScrn=  0.000000 ICntrl=     500 IOpCl=  0 I1Cent=   200000004 NGrid=           0
         NMat0=    1 NMatS0=      1 NMatT0=    0 NMatD0=    1 NMtDS0=    0 NMtDT0=    0
 Petite list used in FoFCou.
 Initial guess <Sx>= 0.0000 <Sy>= 0.0000 <Sz>= 0.5000 <S**2>= 0.7500 S= 0.5000
 Requested convergence on RMS density matrix=1.00D-08 within1000 cycles.
 Requested convergence on MAX density matrix=1.00D-06.
 Requested convergence on             energy=1.00D-06.
 No special actions if energy rises.
 Integral accuracy reduced to 1.0D-05 until final iterations.
 Initial convergence to 1.0D-05 achieved.  Increase integral accuracy.
 Restarting incremental Fock formation.
 SCF Done:  E(UM062X) =  -1125.23295895     A.U. after   39 cycles
            NFock= 39  Conv=0.59D-08     -V/T= 2.0032
 <Sx>= 0.0000 <Sy>= 0.0000 <Sz>= 0.5000 <S**2>= 0.7558 S= 0.5029
 <L.S>= 0.000000000000E+00
 Annihilation of the first spin contaminant:
 S**2 before annihilation     0.7558,   after     0.7500

 **********************************************************************

            Population analysis using the SCF density.

 **********************************************************************

 Orbital symmetries:
 Alpha Orbitals:
       Occupied  (A) (A) (A) (A) (A) (A) (A) (A) (A) (A) (A) (A)
                 (A) (A) (A) (A) (A) (A) (A) (A) (A) (A) (A) (A)
                 (A) (A) (A) (A) (A) (A) (A) (A) (A) (A) (A) (A)
                 (A) (A) (A) (A) (A) (A) (A) (A) (A) (A) (A) (A)
                 (A) (A) (A) (A) (A) (A) (A) (A) (A) (A) (A) (A)
                 (A) (A) (A) (A) (A) (A) (A) (A) (A) (A) (A) (A)
                 (A) (A) (A) (A) (A) (A) (A) (A) (A) (A) (A) (A)
                 (A) (A) (A) (A) (A) (A)
       Virtual   (A) (A) (A) (A) (A) (A) (A) (A) (A) (A) (A) (A)
                 (A) (A) (A) (A) (A) (A) (A) (A) (A) (A) (A) (A)
                 (A) (A) (A) (A) (A) (A) (A) (A) (A) (A) (A) (A)
                 (A) (A) (A) (A) (A) (A) (A) (A) (A) (A) (A) (A)
                 (A) (A) (A) (A) (A) (A) (A) (A) (A) (A) (A) (A)
                 (A) (A) (A) (A) (A) (A) (A) (A) (A) (A) (A) (A)
                 (A) (A) (A) (A) (A) (A) (A) (A) (A) (A) (A) (A)
                 (A) (A) (A) (A) (A) (A) (A) (A) (A) (A) (A) (A)
                 (A) (A) (A) (A) (A) (A) (A) (A) (A) (A) (A) (A)
                 (A) (A) (A) (A) (A) (A) (A) (A) (A) (A) (A) (A)
                 (A) (A) (A) (A) (A) (A) (A) (A) (A) (A) (A) (A)
                 (A) (A) (A) (A) (A) (A) (A) (A) (A) (A) (A) (A)
                 (A) (A) (A) (A) (A) (A) (A) (A) (A) (A) (A) (A)
                 (A) (A) (A) (A) (A) (A) (A) (A) (A) (A) (A) (A)
                 (A) (A) (A) (A) (A) (A) (A) (A) (A) (A) (A) (A)
                 (A) (A) (A) (A) (A) (A) (A) (A) (A) (A) (A) (A)
                 (A) (A) (A) (A) (A) (A) (A) (A) (A) (A) (A) (A)
                 (A) (A) (A) (A) (A) (A) (A) (A) (A) (A) (A) (A)
                 (A) (A) (A) (A) (A) (A) (A) (A) (A) (A) (A) (A)
                 (A) (A) (A) (A) (A) (A) (A) (A) (A) (A) (A) (A)
                 (A) (A) (A) (A) (A) (A) (A) (A) (A) (A) (A) (A)
                 (A) (A) (A) (A) (A) (A) (A) (A) (A) (A) (A) (A)
                 (A) (A) (A) (A) (A) (A) (A) (A) (A) (A) (A) (A)
                 (A) (A) (A) (A) (A) (A) (A) (A) (A) (A) (A) (A)
                 (A) (A) (A) (A) (A) (A) (A) (A) (A) (A) (A) (A)
                 (A) (A) (A) (A) (A) (A) (A) (A) (A) (A) (A) (A)
                 (A) (A) (A) (A) (A) (A) (A) (A) (A) (A) (A) (A)
                 (A) (A) (A) (A) (A) (A) (A) (A) (A) (A) (A) (A)
                 (A) (A) (A) (A) (A) (A) (A) (A) (A) (A) (A) (A)
                 (A) (A) (A) (A) (A) (A) (A) (A) (A) (A) (A) (A)
                 (A) (A) (A) (A) (A) (A) (A) (A) (A) (A) (A) (A)
                 (A) (A) (A) (A) (A) (A) (A) (A) (A) (A) (A) (A)
                 (A) (A) (A) (A) (A) (A) (A) (A) (A) (A) (A) (A)
                 (A) (A) (A) (A) (A) (A) (A) (A) (A) (A) (A) (A)
                 (A) (A) (A) (A) (A) (A) (A) (A) (A) (A) (A) (A)
                 (A) (A) (A) (A) (A) (A) (A) (A) (A) (A) (A) (A)
                 (A) (A) (A) (A) (A) (A) (A) (A) (A) (A) (A) (A)
                 (A) (A) (A) (A) (A) (A) (A) (A) (A) (A) (A) (A)
                 (A) (A) (A) (A) (A) (A) (A) (A) (A) (A) (A) (A)
                 (A) (A) (A) (A) (A) (A)
 Beta  Orbitals:
       Occupied  (A) (A) (A) (A) (A) (A) (A) (A) (A) (A) (A) (A)
                 (A) (A) (A) (A) (A) (A) (A) (A) (A) (A) (A) (A)
                 (A) (A) (A) (A) (A) (A) (A) (A) (A) (A) (A) (A)
                 (A) (A) (A) (A) (A) (A) (A) (A) (A) (A) (A) (A)
                 (A) (A) (A) (A) (A) (A) (A) (A) (A) (A) (A) (A)
                 (A) (A) (A) (A) (A) (A) (A) (A) (A) (A) (A) (A)
                 (A) (A) (A) (A) (A) (A) (A) (A) (A) (A) (A) (A)
                 (A) (A) (A) (A) (A)
       Virtual   (A) (A) (A) (A) (A) (A) (A) (A) (A) (A) (A) (A)
                 (A) (A) (A) (A) (A) (A) (A) (A) (A) (A) (A) (A)
                 (A) (A) (A) (A) (A) (A) (A) (A) (A) (A) (A) (A)
                 (A) (A) (A) (A) (A) (A) (A) (A) (A) (A) (A) (A)
                 (A) (A) (A) (A) (A) (A) (A) (A) (A) (A) (A) (A)
                 (A) (A) (A) (A) (A) (A) (A) (A) (A) (A) (A) (A)
                 (A) (A) (A) (A) (A) (A) (A) (A) (A) (A) (A) (A)
                 (A) (A) (A) (A) (A) (A) (A) (A) (A) (A) (A) (A)
                 (A) (A) (A) (A) (A) (A) (A) (A) (A) (A) (A) (A)
                 (A) (A) (A) (A) (A) (A) (A) (A) (A) (A) (A) (A)
                 (A) (A) (A) (A) (A) (A) (A) (A) (A) (A) (A) (A)
                 (A) (A) (A) (A) (A) (A) (A) (A) (A) (A) (A) (A)
                 (A) (A) (A) (A) (A) (A) (A) (A) (A) (A) (A) (A)
                 (A) (A) (A) (A) (A) (A) (A) (A) (A) (A) (A) (A)
                 (A) (A) (A) (A) (A) (A) (A) (A) (A) (A) (A) (A)
                 (A) (A) (A) (A) (A) (A) (A) (A) (A) (A) (A) (A)
                 (A) (A) (A) (A) (A) (A) (A) (A) (A) (A) (A) (A)
                 (A) (A) (A) (A) (A) (A) (A) (A) (A) (A) (A) (A)
                 (A) (A) (A) (A) (A) (A) (A) (A) (A) (A) (A) (A)
                 (A) (A) (A) (A) (A) (A) (A) (A) (A) (A) (A) (A)
                 (A) (A) (A) (A) (A) (A) (A) (A) (A) (A) (A) (A)
                 (A) (A) (A) (A) (A) (A) (A) (A) (A) (A) (A) (A)
                 (A) (A) (A) (A) (A) (A) (A) (A) (A) (A) (A) (A)
                 (A) (A) (A) (A) (A) (A) (A) (A) (A) (A) (A) (A)
                 (A) (A) (A) (A) (A) (A) (A) (A) (A) (A) (A) (A)
                 (A) (A) (A) (A) (A) (A) (A) (A) (A) (A) (A) (A)
                 (A) (A) (A) (A) (A) (A) (A) (A) (A) (A) (A) (A)
                 (A) (A) (A) (A) (A) (A) (A) (A) (A) (A) (A) (A)
                 (A) (A) (A) (A) (A) (A) (A) (A) (A) (A) (A) (A)
                 (A) (A) (A) (A) (A) (A) (A) (A) (A) (A) (A) (A)
                 (A) (A) (A) (A) (A) (A) (A) (A) (A) (A) (A) (A)
                 (A) (A) (A) (A) (A) (A) (A) (A) (A) (A) (A) (A)
                 (A) (A) (A) (A) (A) (A) (A) (A) (A) (A) (A) (A)
                 (A) (A) (A) (A) (A) (A) (A) (A) (A) (A) (A) (A)
                 (A) (A) (A) (A) (A) (A) (A) (A) (A) (A) (A) (A)
                 (A) (A) (A) (A) (A) (A) (A) (A) (A) (A) (A) (A)
                 (A) (A) (A) (A) (A) (A) (A) (A) (A) (A) (A) (A)
                 (A) (A) (A) (A) (A) (A) (A) (A) (A) (A) (A) (A)
                 (A) (A) (A) (A) (A) (A) (A) (A) (A) (A) (A) (A)
                 (A) (A) (A) (A) (A) (A) (A)
 The electronic state is 2-A.
 Alpha  occ. eigenvalues --  -19.53675 -19.49807 -19.47722 -14.67050 -14.66935
 Alpha  occ. eigenvalues --  -14.63123 -10.57657 -10.54753 -10.50789 -10.49988
 Alpha  occ. eigenvalues --  -10.46692 -10.46271 -10.46216 -10.46081 -10.46062
 Alpha  occ. eigenvalues --  -10.45965 -10.45874 -10.45778 -10.45654 -10.38918
 Alpha  occ. eigenvalues --  -10.38362 -10.37564 -10.36689 -10.36504 -10.36076
 Alpha  occ. eigenvalues --   -1.11821  -1.07839  -1.02226  -0.95011  -0.93774
 Alpha  occ. eigenvalues --   -0.89922  -0.88372  -0.80844  -0.80210  -0.76300
 Alpha  occ. eigenvalues --   -0.75858  -0.73093  -0.72110  -0.68368  -0.65776
 Alpha  occ. eigenvalues --   -0.65006  -0.61126  -0.58671  -0.57473  -0.56493
 Alpha  occ. eigenvalues --   -0.53721  -0.53207  -0.51562  -0.51240  -0.50203
 Alpha  occ. eigenvalues --   -0.49092  -0.46577  -0.45944  -0.45219  -0.44706
 Alpha  occ. eigenvalues --   -0.44101  -0.43455  -0.41890  -0.41220  -0.40810
 Alpha  occ. eigenvalues --   -0.39897  -0.39023  -0.38733  -0.38094  -0.37715
 Alpha  occ. eigenvalues --   -0.36833  -0.35572  -0.34602  -0.34065  -0.33633
 Alpha  occ. eigenvalues --   -0.33178  -0.32884  -0.31774  -0.31641  -0.30083
 Alpha  occ. eigenvalues --   -0.29533  -0.28518  -0.27825  -0.27497  -0.26680
 Alpha  occ. eigenvalues --   -0.24743  -0.24197  -0.23188  -0.22970  -0.22636
 Alpha  occ. eigenvalues --   -0.21959  -0.20824  -0.16258  -0.15901   0.05568
 Alpha virt. eigenvalues --    0.09454   0.10754   0.14593   0.15033   0.16628
 Alpha virt. eigenvalues --    0.17084   0.17606   0.18348   0.19401   0.19655
 Alpha virt. eigenvalues --    0.19884   0.20589   0.20891   0.21532   0.22539
 Alpha virt. eigenvalues --    0.23038   0.23924   0.24559   0.24998   0.25302
 Alpha virt. eigenvalues --    0.26009   0.26333   0.26884   0.27972   0.29505
 Alpha virt. eigenvalues --    0.30461   0.30546   0.31275   0.32174   0.32463
 Alpha virt. eigenvalues --    0.33767   0.35045   0.36450   0.37533   0.38085
 Alpha virt. eigenvalues --    0.38792   0.38936   0.39986   0.40657   0.41098
 Alpha virt. eigenvalues --    0.41898   0.42339   0.42557   0.43921   0.44611
 Alpha virt. eigenvalues --    0.45719   0.46104   0.46842   0.47851   0.48362
 Alpha virt. eigenvalues --    0.48786   0.48986   0.49919   0.50679   0.51503
 Alpha virt. eigenvalues --    0.51871   0.52476   0.53062   0.53472   0.54366
 Alpha virt. eigenvalues --    0.54886   0.55217   0.55770   0.56226   0.57191
 Alpha virt. eigenvalues --    0.57736   0.58343   0.58808   0.59782   0.60123
 Alpha virt. eigenvalues --    0.60662   0.61131   0.61215   0.61984   0.62881
 Alpha virt. eigenvalues --    0.63412   0.63530   0.63998   0.65351   0.65781
 Alpha virt. eigenvalues --    0.65975   0.66792   0.67277   0.67346   0.67779
 Alpha virt. eigenvalues --    0.68412   0.69156   0.70032   0.70434   0.71280
 Alpha virt. eigenvalues --    0.71407   0.71792   0.72245   0.72576   0.72906
 Alpha virt. eigenvalues --    0.73830   0.74449   0.74779   0.75211   0.75548
 Alpha virt. eigenvalues --    0.75971   0.76158   0.76904   0.77227   0.77552
 Alpha virt. eigenvalues --    0.78478   0.78594   0.79394   0.80048   0.80065
 Alpha virt. eigenvalues --    0.80780   0.81149   0.81311   0.82463   0.82966
 Alpha virt. eigenvalues --    0.83660   0.84812   0.85265   0.85830   0.86441
 Alpha virt. eigenvalues --    0.86751   0.88067   0.88425   0.89691   0.90228
 Alpha virt. eigenvalues --    0.90943   0.91577   0.92499   0.93291   0.94432
 Alpha virt. eigenvalues --    0.94542   0.95793   0.95961   0.96986   0.97240
 Alpha virt. eigenvalues --    0.98372   0.98975   0.99098   1.00203   1.01773
 Alpha virt. eigenvalues --    1.02706   1.03910   1.04063   1.05304   1.06168
 Alpha virt. eigenvalues --    1.07684   1.08037   1.09346   1.10549   1.11021
 Alpha virt. eigenvalues --    1.11988   1.13001   1.13155   1.14438   1.15702
 Alpha virt. eigenvalues --    1.15961   1.17003   1.17415   1.19293   1.19678
 Alpha virt. eigenvalues --    1.20457   1.21804   1.22187   1.22465   1.23036
 Alpha virt. eigenvalues --    1.24597   1.25953   1.26230   1.26935   1.28055
 Alpha virt. eigenvalues --    1.28935   1.29597   1.30987   1.31775   1.33225
 Alpha virt. eigenvalues --    1.34738   1.35076   1.36414   1.36817   1.37867
 Alpha virt. eigenvalues --    1.39464   1.40541   1.42141   1.42525   1.44735
 Alpha virt. eigenvalues --    1.46255   1.47133   1.48203   1.49316   1.51007
 Alpha virt. eigenvalues --    1.52260   1.53810   1.54895   1.56971   1.58025
 Alpha virt. eigenvalues --    1.58211   1.59826   1.60900   1.61751   1.63118
 Alpha virt. eigenvalues --    1.63671   1.64360   1.64804   1.65351   1.66866
 Alpha virt. eigenvalues --    1.67328   1.67621   1.68127   1.68405   1.68775
 Alpha virt. eigenvalues --    1.69601   1.69721   1.71486   1.71949   1.73016
 Alpha virt. eigenvalues --    1.73524   1.73951   1.74704   1.75009   1.75762
 Alpha virt. eigenvalues --    1.76009   1.77526   1.78473   1.78814   1.79310
 Alpha virt. eigenvalues --    1.79509   1.80166   1.81733   1.82363   1.83279
 Alpha virt. eigenvalues --    1.83861   1.83939   1.85636   1.86381   1.87038
 Alpha virt. eigenvalues --    1.87618   1.87948   1.88370   1.89040   1.89380
 Alpha virt. eigenvalues --    1.90422   1.90907   1.92531   1.92661   1.93438
 Alpha virt. eigenvalues --    1.93965   1.94539   1.95713   1.96464   1.97583
 Alpha virt. eigenvalues --    1.98141   2.00894   2.01298   2.02539   2.03214
 Alpha virt. eigenvalues --    2.03357   2.03592   2.04540   2.04632   2.05218
 Alpha virt. eigenvalues --    2.07345   2.07823   2.09343   2.09983   2.10495
 Alpha virt. eigenvalues --    2.10703   2.11073   2.11573   2.12737   2.13451
 Alpha virt. eigenvalues --    2.13934   2.14747   2.15856   2.17900   2.17934
 Alpha virt. eigenvalues --    2.19125   2.20760   2.21726   2.22895   2.23509
 Alpha virt. eigenvalues --    2.24477   2.24912   2.25919   2.26779   2.28320
 Alpha virt. eigenvalues --    2.29952   2.30854   2.32404   2.33058   2.35581
 Alpha virt. eigenvalues --    2.37148   2.39521   2.39646   2.41764   2.44596
 Alpha virt. eigenvalues --    2.44821   2.46148   2.47063   2.47869   2.49204
 Alpha virt. eigenvalues --    2.49478   2.50840   2.51719   2.52937   2.53068
 Alpha virt. eigenvalues --    2.53269   2.53756   2.56749   2.58099   2.59085
 Alpha virt. eigenvalues --    2.60118   2.61196   2.62276   2.63424   2.64277
 Alpha virt. eigenvalues --    2.68102   2.69813   2.69981   2.70537   2.71390
 Alpha virt. eigenvalues --    2.71875   2.72511   2.73386   2.73704   2.74366
 Alpha virt. eigenvalues --    2.75310   2.76658   2.77123   2.78414   2.79385
 Alpha virt. eigenvalues --    2.79862   2.80349   2.81039   2.82359   2.82629
 Alpha virt. eigenvalues --    2.84307   2.85087   2.85750   2.86141   2.86341
 Alpha virt. eigenvalues --    2.86911   2.87984   2.88168   2.89093   2.91022
 Alpha virt. eigenvalues --    2.91946   2.92777   2.94891   2.95526   2.95807
 Alpha virt. eigenvalues --    2.96240   2.97960   2.99246   3.01261   3.01407
 Alpha virt. eigenvalues --    3.02038   3.02730   3.02820   3.03579   3.04449
 Alpha virt. eigenvalues --    3.05125   3.06227   3.06597   3.07885   3.08504
 Alpha virt. eigenvalues --    3.09275   3.09797   3.10939   3.11553   3.12267
 Alpha virt. eigenvalues --    3.13746   3.14508   3.15999   3.18447   3.20082
 Alpha virt. eigenvalues --    3.20801   3.21722   3.24708   3.28237   3.29148
 Alpha virt. eigenvalues --    3.30833   3.32379   3.33717   3.34629   3.39442
 Alpha virt. eigenvalues --    3.41267   3.43049   3.44694   3.49678   3.50182
 Alpha virt. eigenvalues --    3.51426   3.52757   3.55999   3.57452   3.57980
 Alpha virt. eigenvalues --    3.59528   3.60522   3.60996   3.62323   3.70758
 Alpha virt. eigenvalues --    3.72067   3.73324   3.74037   3.74799   3.77732
 Alpha virt. eigenvalues --    3.80220   3.82375   3.82517   3.88020   3.88993
 Alpha virt. eigenvalues --    3.93870   3.96449   3.98366   3.99389   4.03737
 Alpha virt. eigenvalues --    4.06118   4.08632   4.10455   4.13246   4.14502
 Alpha virt. eigenvalues --    4.14769   4.18311   4.18974   4.20544   4.23135
 Alpha virt. eigenvalues --    4.23951   4.25125   4.29617   4.32776   4.33213
 Alpha virt. eigenvalues --    4.39152   4.48144   4.51419   4.71093   4.94406
 Alpha virt. eigenvalues --    4.96066   5.01882   5.04662   5.07854   5.10619
 Alpha virt. eigenvalues --    5.16981   5.18327   5.25781   5.32249   5.36219
 Alpha virt. eigenvalues --    5.56239   5.85946   5.88756   6.01582  23.71054
 Alpha virt. eigenvalues --   23.80490  23.94427  23.97921  24.00388  24.02283
 Alpha virt. eigenvalues --   24.06314  24.07088  24.11030  24.12707  24.19188
 Alpha virt. eigenvalues --   24.20123  24.25778  24.26902  24.33355  24.34527
 Alpha virt. eigenvalues --   24.36060  24.44052  24.49628  35.78856  35.82131
 Alpha virt. eigenvalues --   36.03948  50.13956  50.23095  50.24670
  Beta  occ. eigenvalues --  -19.53591 -19.49795 -19.47688 -14.67047 -14.66935
  Beta  occ. eigenvalues --  -14.63113 -10.57645 -10.54749 -10.50787 -10.49983
  Beta  occ. eigenvalues --  -10.46686 -10.46271 -10.46219 -10.46077 -10.46063
  Beta  occ. eigenvalues --  -10.45963 -10.45855 -10.45785 -10.45631 -10.38947
  Beta  occ. eigenvalues --  -10.38415 -10.37498 -10.36505 -10.36388 -10.35877
  Beta  occ. eigenvalues --   -1.11670  -1.07810  -1.02064  -0.94981  -0.93758
  Beta  occ. eigenvalues --   -0.89898  -0.88317  -0.80762  -0.79764  -0.76237
  Beta  occ. eigenvalues --   -0.75813  -0.73015  -0.71727  -0.67990  -0.65616
  Beta  occ. eigenvalues --   -0.64694  -0.61043  -0.58618  -0.57400  -0.56250
  Beta  occ. eigenvalues --   -0.53472  -0.53129  -0.51206  -0.50994  -0.49968
  Beta  occ. eigenvalues --   -0.49063  -0.46522  -0.45911  -0.45055  -0.44664
  Beta  occ. eigenvalues --   -0.43998  -0.43216  -0.41819  -0.41094  -0.40733
  Beta  occ. eigenvalues --   -0.39806  -0.38847  -0.38608  -0.37979  -0.37474
  Beta  occ. eigenvalues --   -0.36783  -0.35368  -0.34403  -0.33873  -0.33443
  Beta  occ. eigenvalues --   -0.33100  -0.32575  -0.31727  -0.31583  -0.29747
  Beta  occ. eigenvalues --   -0.29451  -0.28346  -0.27357  -0.26940  -0.26498
  Beta  occ. eigenvalues --   -0.24600  -0.23852  -0.23134  -0.22712  -0.22403
  Beta  occ. eigenvalues --   -0.21785  -0.20713  -0.14837  -0.13442
  Beta virt. eigenvalues --    0.10543   0.10780   0.14571   0.15095   0.16571
  Beta virt. eigenvalues --    0.16933   0.17692   0.18085   0.18454   0.19449
  Beta virt. eigenvalues --    0.19614   0.19779   0.20679   0.21004   0.21796
  Beta virt. eigenvalues --    0.22469   0.22944   0.23799   0.24449   0.25022
  Beta virt. eigenvalues --    0.25267   0.25879   0.26308   0.26829   0.28129
  Beta virt. eigenvalues --    0.29444   0.30508   0.31130   0.32123   0.32304
  Beta virt. eigenvalues --    0.32501   0.33828   0.35900   0.36505   0.37864
  Beta virt. eigenvalues --    0.38358   0.38828   0.39068   0.40095   0.40719
  Beta virt. eigenvalues --    0.41343   0.41939   0.42421   0.42579   0.43983
  Beta virt. eigenvalues --    0.44667   0.45921   0.46153   0.47061   0.48004
  Beta virt. eigenvalues --    0.48652   0.49107   0.49288   0.50017   0.50810
  Beta virt. eigenvalues --    0.51672   0.51925   0.52569   0.53144   0.53724
  Beta virt. eigenvalues --    0.54593   0.54965   0.55267   0.55890   0.56276
  Beta virt. eigenvalues --    0.57246   0.57782   0.58464   0.58997   0.60007
  Beta virt. eigenvalues --    0.60179   0.60875   0.61236   0.61393   0.62124
  Beta virt. eigenvalues --    0.63045   0.63578   0.63742   0.64287   0.65557
  Beta virt. eigenvalues --    0.65915   0.66082   0.67013   0.67371   0.67405
  Beta virt. eigenvalues --    0.67877   0.68540   0.69410   0.70115   0.70653
  Beta virt. eigenvalues --    0.71353   0.71695   0.71928   0.72396   0.72624
  Beta virt. eigenvalues --    0.73031   0.73937   0.74523   0.74837   0.75255
  Beta virt. eigenvalues --    0.75674   0.76048   0.76209   0.76928   0.77297
  Beta virt. eigenvalues --    0.77639   0.78668   0.78721   0.79561   0.80166
  Beta virt. eigenvalues --    0.80562   0.80929   0.81390   0.81619   0.82728
  Beta virt. eigenvalues --    0.83249   0.83814   0.84945   0.85366   0.86199
  Beta virt. eigenvalues --    0.86563   0.86948   0.88322   0.88708   0.89816
  Beta virt. eigenvalues --    0.90394   0.91123   0.91743   0.92774   0.93435
  Beta virt. eigenvalues --    0.94503   0.94724   0.96046   0.96237   0.97094
  Beta virt. eigenvalues --    0.97469   0.98513   0.99108   0.99273   1.00419
  Beta virt. eigenvalues --    1.01953   1.02928   1.04338   1.04425   1.05668
  Beta virt. eigenvalues --    1.06288   1.07970   1.08238   1.09589   1.10731
  Beta virt. eigenvalues --    1.11185   1.12144   1.13075   1.13282   1.14583
  Beta virt. eigenvalues --    1.15760   1.16036   1.17161   1.17552   1.19403
  Beta virt. eigenvalues --    1.19930   1.20656   1.21904   1.22544   1.22753
  Beta virt. eigenvalues --    1.23735   1.24816   1.26107   1.26435   1.27339
  Beta virt. eigenvalues --    1.28116   1.29096   1.29727   1.31129   1.31984
  Beta virt. eigenvalues --    1.33746   1.34977   1.35482   1.36677   1.37305
  Beta virt. eigenvalues --    1.38053   1.39621   1.40692   1.42385   1.42593
  Beta virt. eigenvalues --    1.44921   1.46301   1.47204   1.48234   1.49411
  Beta virt. eigenvalues --    1.51068   1.52329   1.53953   1.54967   1.57142
  Beta virt. eigenvalues --    1.58103   1.58263   1.59926   1.61059   1.61936
  Beta virt. eigenvalues --    1.63314   1.63928   1.64495   1.64905   1.65421
  Beta virt. eigenvalues --    1.67097   1.67463   1.67694   1.68186   1.68490
  Beta virt. eigenvalues --    1.68989   1.69660   1.69793   1.71610   1.72109
  Beta virt. eigenvalues --    1.73097   1.73606   1.74167   1.74762   1.75085
  Beta virt. eigenvalues --    1.76072   1.76421   1.77803   1.78684   1.78930
  Beta virt. eigenvalues --    1.79464   1.79796   1.80384   1.81837   1.82484
  Beta virt. eigenvalues --    1.83386   1.83938   1.84075   1.85704   1.86488
  Beta virt. eigenvalues --    1.87091   1.87772   1.88138   1.88534   1.89110
  Beta virt. eigenvalues --    1.89599   1.90653   1.91021   1.92635   1.92799
  Beta virt. eigenvalues --    1.93574   1.94310   1.94685   1.95881   1.96633
  Beta virt. eigenvalues --    1.97782   1.98336   2.01058   2.01338   2.02628
  Beta virt. eigenvalues --    2.03257   2.03463   2.03689   2.04678   2.04748
  Beta virt. eigenvalues --    2.05342   2.07531   2.07912   2.09428   2.10528
  Beta virt. eigenvalues --    2.10758   2.11103   2.11324   2.11891   2.13013
  Beta virt. eigenvalues --    2.13950   2.14586   2.14867   2.16279   2.17977
  Beta virt. eigenvalues --    2.18549   2.19257   2.20948   2.21932   2.22980
  Beta virt. eigenvalues --    2.23608   2.24655   2.25086   2.26033   2.27244
  Beta virt. eigenvalues --    2.28361   2.30080   2.31178   2.32691   2.33176
  Beta virt. eigenvalues --    2.35806   2.37875   2.39548   2.39731   2.41820
  Beta virt. eigenvalues --    2.44634   2.44907   2.46243   2.47111   2.48009
  Beta virt. eigenvalues --    2.49253   2.49947   2.50904   2.52265   2.53070
  Beta virt. eigenvalues --    2.53183   2.53743   2.54160   2.57038   2.58192
  Beta virt. eigenvalues --    2.59194   2.60168   2.61291   2.62540   2.63528
  Beta virt. eigenvalues --    2.64548   2.68151   2.69864   2.70025   2.70614
  Beta virt. eigenvalues --    2.71455   2.71956   2.72678   2.73526   2.73751
  Beta virt. eigenvalues --    2.74379   2.75428   2.76716   2.77339   2.78705
  Beta virt. eigenvalues --    2.79676   2.79984   2.80602   2.81275   2.82516
  Beta virt. eigenvalues --    2.82801   2.84532   2.85279   2.85959   2.86380
  Beta virt. eigenvalues --    2.86724   2.87274   2.88250   2.88384   2.89278
  Beta virt. eigenvalues --    2.91158   2.92146   2.92974   2.95017   2.95668
  Beta virt. eigenvalues --    2.96131   2.96548   2.98103   2.99523   3.01437
  Beta virt. eigenvalues --    3.01695   3.02636   3.02841   3.03098   3.03728
  Beta virt. eigenvalues --    3.04994   3.05358   3.06399   3.06932   3.08127
  Beta virt. eigenvalues --    3.08914   3.09451   3.10646   3.11336   3.11776
  Beta virt. eigenvalues --    3.12410   3.14208   3.14629   3.16137   3.18673
  Beta virt. eigenvalues --    3.20246   3.20973   3.21842   3.24915   3.28557
  Beta virt. eigenvalues --    3.29596   3.31134   3.32427   3.33946   3.34776
  Beta virt. eigenvalues --    3.39678   3.41695   3.43281   3.44849   3.49728
  Beta virt. eigenvalues --    3.50211   3.51470   3.52823   3.56124   3.57601
  Beta virt. eigenvalues --    3.58130   3.59783   3.60587   3.61074   3.62366
  Beta virt. eigenvalues --    3.71090   3.72184   3.73397   3.74225   3.74872
  Beta virt. eigenvalues --    3.77777   3.80284   3.82441   3.83016   3.88436
  Beta virt. eigenvalues --    3.89026   3.93913   3.96512   3.98424   3.99433
  Beta virt. eigenvalues --    4.03939   4.06179   4.08715   4.10503   4.13343
  Beta virt. eigenvalues --    4.14665   4.14855   4.18550   4.19170   4.20663
  Beta virt. eigenvalues --    4.23683   4.24151   4.25230   4.29779   4.33510
  Beta virt. eigenvalues --    4.34040   4.39199   4.48248   4.52856   4.71105
  Beta virt. eigenvalues --    4.94584   4.96093   5.03260   5.04732   5.07907
  Beta virt. eigenvalues --    5.10648   5.17032   5.18478   5.25915   5.32325
  Beta virt. eigenvalues --    5.36242   5.56342   5.85964   5.88830   6.01674
  Beta virt. eigenvalues --   23.71066  23.80527  23.94432  23.97938  24.00410
  Beta virt. eigenvalues --   24.02302  24.06324  24.07183  24.11059  24.12729
  Beta virt. eigenvalues --   24.19253  24.20326  24.25809  24.26942  24.33525
  Beta virt. eigenvalues --   24.34706  24.36102  24.44254  24.49624  35.78860
  Beta virt. eigenvalues --   35.82135  36.03943  50.13922  50.23079  50.24628
          Condensed to atoms (all electrons):
               1          2          3          4          5          6
     1  N    6.368932   1.014719  -0.082567   0.000941   0.000163  -0.000356
     2  C    1.014719   4.830828   0.193548  -0.063124  -0.007958  -0.002645
     3  C   -0.082567   0.193548   5.025960   0.267691  -0.058698   0.011188
     4  N    0.000941  -0.063124   0.267691   6.817473   0.360385  -0.113707
     5  C    0.000163  -0.007958  -0.058698   0.360385   4.523652   0.659782
     6  O   -0.000356  -0.002645   0.011188  -0.113707   0.659782   7.915026
     7  C   -0.000017  -0.001519   0.014119  -0.109222   0.241508  -0.114217
     8  C    0.000001   0.000043  -0.000704   0.007795  -0.068542   0.021076
     9  C    0.000000   0.000000   0.000001  -0.000000   0.010090   0.001433
    10  C   -0.000000  -0.000000   0.000000  -0.000007   0.000189  -0.000053
    11  C    0.000000  -0.000000   0.000000  -0.000000   0.000005  -0.000000
    12  C   -0.000000   0.000000  -0.000000   0.000000  -0.000000   0.000000
    13  C   -0.000000   0.000000   0.000000  -0.000000   0.000007  -0.000000
    14  C    0.000000  -0.000000  -0.000000  -0.000020  -0.000535  -0.000013
    15  N    0.000003   0.000567  -0.001762  -0.002997  -0.066897   0.001395
    16  C   -0.000077   0.000276   0.000166   0.010010   0.003086  -0.000412
    17  O    0.000002  -0.000047   0.000029  -0.000192  -0.000097   0.000000
    18  O    0.000000  -0.000004   0.000293  -0.008540  -0.007110   0.000004
    19  C    0.000007  -0.000026  -0.000214  -0.001195  -0.000123  -0.000000
    20  C    0.000230  -0.000159  -0.000600  -0.007573  -0.000653  -0.000007
    21  C   -0.003953   0.001243   0.008269   0.002576   0.000640   0.000004
    22  C   -0.008081  -0.003714   0.005616  -0.000569   0.000012   0.000001
    23  C    0.000078   0.000539  -0.010431   0.000407  -0.000018  -0.000000
    24  C   -0.000004  -0.000038  -0.000648   0.000115   0.000038   0.000000
    25  C    0.000026   0.000322  -0.000533  -0.001699  -0.000037  -0.000000
    26  H   -0.000180  -0.041589   0.401263  -0.022861   0.005529   0.000506
    27  H   -0.000085  -0.055358   0.417964  -0.039221  -0.007773   0.015323
    28  H    0.000318   0.005511  -0.032760   0.353477  -0.034309   0.002456
    29  H    0.000009   0.000035  -0.000934   0.003468  -0.047884   0.001989
    30  H    0.000001   0.000017  -0.000074   0.000911  -0.007743   0.011268
    31  H   -0.000000   0.000008  -0.000023   0.000295   0.003552   0.003587
    32  H   -0.000000  -0.000000   0.000000  -0.000001  -0.000019  -0.000054
    33  H    0.000000   0.000000  -0.000000   0.000000  -0.000000   0.000000
    34  H    0.000000  -0.000000   0.000000   0.000000   0.000000   0.000000
    35  H    0.000000   0.000000  -0.000000   0.000000  -0.000001   0.000000
    36  H   -0.000000  -0.000000  -0.000001  -0.000004  -0.000189   0.000002
    37  H    0.000030   0.000056  -0.000005   0.000012   0.000575   0.000884
    38  H    0.000000  -0.000006  -0.000011  -0.000036  -0.000013  -0.000000
    39  H    0.000005  -0.000017  -0.000046  -0.000214  -0.000136  -0.000000
    40  H    0.000674   0.000006  -0.000125   0.000347   0.000084  -0.000002
    41  H    0.003975   0.000771   0.000389  -0.000047  -0.000005   0.000000
    42  H    0.000020   0.000111  -0.000135   0.000006  -0.000000  -0.000000
    43  H    0.000000  -0.000002   0.000067  -0.000018  -0.000001  -0.000000
    44  H    0.000000   0.000001  -0.000057   0.000041  -0.000017   0.000000
               7          8          9         10         11         12
     1  N   -0.000017   0.000001   0.000000  -0.000000   0.000000  -0.000000
     2  C   -0.001519   0.000043   0.000000  -0.000000  -0.000000   0.000000
     3  C    0.014119  -0.000704   0.000001   0.000000   0.000000  -0.000000
     4  N   -0.109222   0.007795  -0.000000  -0.000007  -0.000000   0.000000
     5  C    0.241508  -0.068542   0.010090   0.000189   0.000005  -0.000000
     6  O   -0.114217   0.021076   0.001433  -0.000053  -0.000000   0.000000
     7  C    5.574907   0.256145  -0.100367  -0.004641  -0.000468   0.000052
     8  C    0.256145   5.103030   0.320379  -0.047527   0.006070   0.000518
     9  C   -0.100367   0.320379   5.184758   0.523605  -0.061595  -0.039160
    10  C   -0.004641  -0.047527   0.523605   4.863361   0.520717  -0.065837
    11  C   -0.000468   0.006070  -0.061595   0.520717   4.923120   0.512677
    12  C    0.000052   0.000518  -0.039160  -0.065837   0.512677   4.920405
    13  C    0.000060   0.004181  -0.053708  -0.039034  -0.064366   0.533219
    14  C   -0.005647  -0.055916   0.489181  -0.058038  -0.035831  -0.071971
    15  N    0.216005  -0.046349  -0.010951   0.012011  -0.000108   0.000036
    16  C   -0.041902   0.001624   0.000003  -0.000024   0.000123  -0.000018
    17  O    0.003681  -0.000158   0.000022  -0.000027  -0.000003   0.000000
    18  O    0.006840   0.000342  -0.000238  -0.000020   0.000002  -0.000000
    19  C   -0.001718  -0.000057  -0.000046  -0.000006   0.000001  -0.000000
    20  C   -0.000967  -0.000024  -0.000005  -0.000000   0.000000  -0.000000
    21  C   -0.000200   0.000005   0.000001   0.000000  -0.000000   0.000000
    22  C    0.000010  -0.000000   0.000000   0.000000  -0.000000   0.000000
    23  C   -0.000000  -0.000000  -0.000000  -0.000000   0.000000  -0.000000
    24  C    0.000014   0.000000   0.000000   0.000000  -0.000000   0.000000
    25  C    0.000015   0.000000   0.000000   0.000000  -0.000000   0.000000
    26  H    0.000023  -0.000002  -0.000001  -0.000000   0.000000  -0.000000
    27  H    0.001776  -0.000038  -0.000001   0.000000   0.000000   0.000000
    28  H   -0.003315   0.000659  -0.000097   0.000000  -0.000000   0.000000
    29  H    0.392189  -0.029405  -0.011183  -0.000780   0.000127  -0.000126
    30  H   -0.039591   0.426330  -0.054339  -0.003534   0.000348  -0.000037
    31  H   -0.053664   0.427509  -0.042963   0.003544  -0.000160  -0.000003
    32  H    0.000209  -0.004043  -0.053132   0.417231  -0.034740   0.007514
    33  H    0.000012  -0.000408   0.008645  -0.041585   0.417385  -0.046337
    34  H    0.000001   0.000033  -0.000773   0.008219  -0.045323   0.419439
    35  H    0.000009  -0.000380   0.008554  -0.000421   0.007395  -0.046048
    36  H   -0.000067  -0.003163  -0.051691   0.006439  -0.000468   0.007411
    37  H   -0.041904  -0.003869  -0.001901   0.001491   0.000229  -0.000031
    38  H   -0.000083  -0.000011  -0.000006  -0.000000   0.000000  -0.000000
    39  H    0.000024   0.000010  -0.000012  -0.000004   0.000002  -0.000000
    40  H   -0.000109  -0.000004  -0.000000  -0.000000   0.000000  -0.000000
    41  H    0.000001  -0.000000  -0.000000  -0.000000   0.000000  -0.000000
    42  H   -0.000000  -0.000000  -0.000000  -0.000000   0.000000  -0.000000
    43  H    0.000000   0.000000   0.000000   0.000000  -0.000000   0.000000
    44  H   -0.000009  -0.000000  -0.000000  -0.000000   0.000000  -0.000000
              13         14         15         16         17         18
     1  N   -0.000000   0.000000   0.000003  -0.000077   0.000002   0.000000
     2  C    0.000000  -0.000000   0.000567   0.000276  -0.000047  -0.000004
     3  C    0.000000  -0.000000  -0.001762   0.000166   0.000029   0.000293
     4  N   -0.000000  -0.000020  -0.002997   0.010010  -0.000192  -0.008540
     5  C    0.000007  -0.000535  -0.066897   0.003086  -0.000097  -0.007110
     6  O   -0.000000  -0.000013   0.001395  -0.000412   0.000000   0.000004
     7  C    0.000060  -0.005647   0.216005  -0.041902   0.003681   0.006840
     8  C    0.004181  -0.055916  -0.046349   0.001624  -0.000158   0.000342
     9  C   -0.053708   0.489181  -0.010951   0.000003   0.000022  -0.000238
    10  C   -0.039034  -0.058038   0.012011  -0.000024  -0.000027  -0.000020
    11  C   -0.064366  -0.035831  -0.000108   0.000123  -0.000003   0.000002
    12  C    0.533219  -0.071971   0.000036  -0.000018   0.000000  -0.000000
    13  C    4.877884   0.527486  -0.000041  -0.000031   0.000000  -0.000004
    14  C    0.527486   4.911959  -0.002350   0.000515   0.000001  -0.000039
    15  N   -0.000041  -0.002350   6.847838   0.361493  -0.090834  -0.098466
    16  C   -0.000031   0.000515   0.361493   4.229901   0.647688   0.312624
    17  O    0.000000   0.000001  -0.090834   0.647688   7.928791  -0.080936
    18  O   -0.000004  -0.000039  -0.098466   0.312624  -0.080936   8.250552
    19  C   -0.000002   0.000040   0.003404  -0.058766  -0.007723   0.169453
    20  C   -0.000000   0.000004   0.000185  -0.017492  -0.006673  -0.103757
    21  C    0.000000  -0.000000  -0.000661   0.016593  -0.003839   0.002353
    22  C    0.000000  -0.000000  -0.000019   0.000331   0.000248   0.000219
    23  C   -0.000000   0.000000   0.000002  -0.000132   0.000002  -0.000076
    24  C    0.000000  -0.000000  -0.000001   0.000130  -0.000002   0.000430
    25  C    0.000000  -0.000000   0.000034  -0.000625  -0.000054   0.002839
    26  H   -0.000000   0.000000  -0.000040  -0.000075   0.000008  -0.000063
    27  H    0.000000   0.000000  -0.000177   0.000132  -0.000000  -0.000033
    28  H   -0.000000  -0.000039  -0.000176  -0.005398  -0.000355   0.022365
    29  H   -0.000011   0.010035  -0.034253  -0.012063   0.000315   0.008756
    30  H   -0.000114   0.004686  -0.005944  -0.000797  -0.000037  -0.000039
    31  H    0.000162  -0.004049   0.006138   0.000053   0.000004  -0.000026
    32  H   -0.000504   0.006544   0.001562   0.000118  -0.000016  -0.000007
    33  H    0.007447  -0.000397  -0.000018   0.000000   0.000000   0.000000
    34  H   -0.045558   0.008189  -0.000000   0.000000   0.000000   0.000000
    35  H    0.417693  -0.043127  -0.000001  -0.000000  -0.000000   0.000000
    36  H   -0.035576   0.418436   0.000079  -0.000001  -0.000000  -0.000047
    37  H    0.000001   0.000108   0.362153  -0.026573   0.007683   0.005134
    38  H   -0.000001   0.000018  -0.000354   0.004885   0.000295  -0.035249
    39  H   -0.000001   0.000009   0.001214  -0.017408   0.016658  -0.051154
    40  H   -0.000000   0.000000  -0.000249  -0.001979   0.013229  -0.002762
    41  H   -0.000000   0.000000   0.000000  -0.000013  -0.000025   0.000015
    42  H   -0.000000   0.000000   0.000000  -0.000001   0.000000  -0.000001
    43  H    0.000000  -0.000000  -0.000000   0.000000  -0.000000   0.000009
    44  H   -0.000000   0.000000   0.000005  -0.000100   0.000004  -0.000451
              19         20         21         22         23         24
     1  N    0.000007   0.000230  -0.003953  -0.008081   0.000078  -0.000004
     2  C   -0.000026  -0.000159   0.001243  -0.003714   0.000539  -0.000038
     3  C   -0.000214  -0.000600   0.008269   0.005616  -0.010431  -0.000648
     4  N   -0.001195  -0.007573   0.002576  -0.000569   0.000407   0.000115
     5  C   -0.000123  -0.000653   0.000640   0.000012  -0.000018   0.000038
     6  O   -0.000000  -0.000007   0.000004   0.000001  -0.000000   0.000000
     7  C   -0.001718  -0.000967  -0.000200   0.000010  -0.000000   0.000014
     8  C   -0.000057  -0.000024   0.000005  -0.000000  -0.000000   0.000000
     9  C   -0.000046  -0.000005   0.000001   0.000000  -0.000000   0.000000
    10  C   -0.000006  -0.000000   0.000000   0.000000  -0.000000   0.000000
    11  C    0.000001   0.000000  -0.000000  -0.000000   0.000000  -0.000000
    12  C   -0.000000  -0.000000   0.000000   0.000000  -0.000000   0.000000
    13  C   -0.000002  -0.000000   0.000000   0.000000  -0.000000   0.000000
    14  C    0.000040   0.000004  -0.000000  -0.000000   0.000000  -0.000000
    15  N    0.003404   0.000185  -0.000661  -0.000019   0.000002  -0.000001
    16  C   -0.058766  -0.017492   0.016593   0.000331  -0.000132   0.000130
    17  O   -0.007723  -0.006673  -0.003839   0.000248   0.000002  -0.000002
    18  O    0.169453  -0.103757   0.002353   0.000219  -0.000076   0.000430
    19  C    4.923675   0.390748  -0.071383   0.004551   0.000817   0.004088
    20  C    0.390748   5.554783   0.329728  -0.066071  -0.021046  -0.095011
    21  C   -0.071383   0.329728   5.171826   0.560086  -0.107509  -0.022142
    22  C    0.004551  -0.066071   0.560086   4.896279   0.489065  -0.051953
    23  C    0.000817  -0.021046  -0.107509   0.489065   5.240216   0.375413
    24  C    0.004088  -0.095011  -0.022142  -0.051953   0.375413   5.065258
    25  C   -0.059142   0.449496  -0.052805  -0.040535  -0.075119   0.580686
    26  H    0.000205  -0.000251  -0.006129  -0.001452   0.018103   0.004012
    27  H   -0.000037  -0.000348   0.000777   0.000409  -0.000674   0.000348
    28  H   -0.003566   0.007223  -0.003360  -0.001230  -0.001838   0.000301
    29  H    0.003918   0.003433  -0.000781  -0.000011   0.000039  -0.000128
    30  H    0.000004   0.000002  -0.000001  -0.000000   0.000000  -0.000000
    31  H   -0.000017  -0.000009   0.000003   0.000000  -0.000000   0.000000
    32  H    0.000000  -0.000000   0.000000   0.000000   0.000000  -0.000000
    33  H    0.000000   0.000000  -0.000000  -0.000000   0.000000  -0.000000
    34  H    0.000000   0.000000  -0.000000  -0.000000   0.000000  -0.000000
    35  H    0.000000   0.000000  -0.000000  -0.000000   0.000000  -0.000000
    36  H    0.000000  -0.000000   0.000000  -0.000000  -0.000000   0.000000
    37  H   -0.000214   0.000234  -0.000066  -0.000007   0.000001  -0.000001
    38  H    0.419771  -0.056997   0.007151  -0.000233  -0.000015   0.000552
    39  H    0.422632  -0.064054  -0.007959   0.000699  -0.000040  -0.000343
    40  H   -0.003047  -0.057278   0.414937  -0.032123   0.008247  -0.000762
    41  H   -0.000426   0.009783  -0.046014   0.417379  -0.050342   0.007891
    42  H    0.000044  -0.000981   0.009621  -0.051871   0.426608  -0.056749
    43  H   -0.000431   0.010462  -0.000974   0.009272  -0.054839   0.422212
    44  H   -0.007356  -0.059737   0.007996  -0.000772   0.008981  -0.042549
              25         26         27         28         29         30
     1  N    0.000026  -0.000180  -0.000085   0.000318   0.000009   0.000001
     2  C    0.000322  -0.041589  -0.055358   0.005511   0.000035   0.000017
     3  C   -0.000533   0.401263   0.417964  -0.032760  -0.000934  -0.000074
     4  N   -0.001699  -0.022861  -0.039221   0.353477   0.003468   0.000911
     5  C   -0.000037   0.005529  -0.007773  -0.034309  -0.047884  -0.007743
     6  O   -0.000000   0.000506   0.015323   0.002456   0.001989   0.011268
     7  C    0.000015   0.000023   0.001776  -0.003315   0.392189  -0.039591
     8  C    0.000000  -0.000002  -0.000038   0.000659  -0.029405   0.426330
     9  C    0.000000  -0.000001  -0.000001  -0.000097  -0.011183  -0.054339
    10  C    0.000000  -0.000000   0.000000   0.000000  -0.000780  -0.003534
    11  C   -0.000000   0.000000   0.000000  -0.000000   0.000127   0.000348
    12  C    0.000000  -0.000000   0.000000   0.000000  -0.000126  -0.000037
    13  C    0.000000  -0.000000   0.000000  -0.000000  -0.000011  -0.000114
    14  C   -0.000000   0.000000   0.000000  -0.000039   0.010035   0.004686
    15  N    0.000034  -0.000040  -0.000177  -0.000176  -0.034253  -0.005944
    16  C   -0.000625  -0.000075   0.000132  -0.005398  -0.012063  -0.000797
    17  O   -0.000054   0.000008  -0.000000  -0.000355   0.000315  -0.000037
    18  O    0.002839  -0.000063  -0.000033   0.022365   0.008756  -0.000039
    19  C   -0.059142   0.000205  -0.000037  -0.003566   0.003918   0.000004
    20  C    0.449496  -0.000251  -0.000348   0.007223   0.003433   0.000002
    21  C   -0.052805  -0.006129   0.000777  -0.003360  -0.000781  -0.000001
    22  C   -0.040535  -0.001452   0.000409  -0.001230  -0.000011  -0.000000
    23  C   -0.075119   0.018103  -0.000674  -0.001838   0.000039   0.000000
    24  C    0.580686   0.004012   0.000348   0.000301  -0.000128  -0.000000
    25  C    4.922220   0.000725  -0.000005   0.009843  -0.000155  -0.000000
    26  H    0.000725   0.450029  -0.020369  -0.009073   0.000129  -0.000001
    27  H   -0.000005  -0.020369   0.503964   0.003175  -0.000553  -0.000062
    28  H    0.009843  -0.009073   0.003175   0.383442   0.002355  -0.000038
    29  H   -0.000155   0.000129  -0.000553   0.002355   0.500480   0.007441
    30  H   -0.000000  -0.000001  -0.000062  -0.000038   0.007441   0.508795
    31  H    0.000001  -0.000006   0.000064  -0.000043  -0.007037  -0.020173
    32  H   -0.000000   0.000000   0.000000  -0.000001  -0.000133   0.001923
    33  H   -0.000000   0.000000  -0.000000   0.000000   0.000003  -0.000017
    34  H   -0.000000  -0.000000  -0.000000  -0.000000  -0.000001  -0.000002
    35  H   -0.000000   0.000000  -0.000000  -0.000000   0.000036   0.000022
    36  H   -0.000000   0.000000   0.000000  -0.000005   0.000891   0.000006
    37  H    0.000000   0.000000  -0.000021  -0.000023   0.006643   0.004535
    38  H   -0.005203   0.000017  -0.000002  -0.000691   0.000108  -0.000000
    39  H    0.006537   0.000012  -0.000004   0.001972   0.000768   0.000001
    40  H    0.007115   0.000166   0.000005  -0.000513   0.000059  -0.000001
    41  H   -0.000388  -0.000087  -0.000025   0.000128   0.000001   0.000000
    42  H    0.010065   0.000329  -0.000007  -0.000019   0.000000   0.000000
    43  H   -0.052815  -0.000065   0.000003   0.000115  -0.000001  -0.000000
    44  H    0.416063   0.000144  -0.000009   0.000026   0.000122   0.000000
              31         32         33         34         35         36
     1  N   -0.000000  -0.000000   0.000000   0.000000   0.000000  -0.000000
     2  C    0.000008  -0.000000   0.000000  -0.000000   0.000000  -0.000000
     3  C   -0.000023   0.000000  -0.000000   0.000000  -0.000000  -0.000001
     4  N    0.000295  -0.000001   0.000000   0.000000   0.000000  -0.000004
     5  C    0.003552  -0.000019  -0.000000   0.000000  -0.000001  -0.000189
     6  O    0.003587  -0.000054   0.000000   0.000000   0.000000   0.000002
     7  C   -0.053664   0.000209   0.000012   0.000001   0.000009  -0.000067
     8  C    0.427509  -0.004043  -0.000408   0.000033  -0.000380  -0.003163
     9  C   -0.042963  -0.053132   0.008645  -0.000773   0.008554  -0.051691
    10  C    0.003544   0.417231  -0.041585   0.008219  -0.000421   0.006439
    11  C   -0.000160  -0.034740   0.417385  -0.045323   0.007395  -0.000468
    12  C   -0.000003   0.007514  -0.046337   0.419439  -0.046048   0.007411
    13  C    0.000162  -0.000504   0.007447  -0.045558   0.417693  -0.035576
    14  C   -0.004049   0.006544  -0.000397   0.008189  -0.043127   0.418436
    15  N    0.006138   0.001562  -0.000018  -0.000000  -0.000001   0.000079
    16  C    0.000053   0.000118   0.000000   0.000000  -0.000000  -0.000001
    17  O    0.000004  -0.000016   0.000000   0.000000  -0.000000  -0.000000
    18  O   -0.000026  -0.000007   0.000000   0.000000   0.000000  -0.000047
    19  C   -0.000017   0.000000   0.000000   0.000000   0.000000   0.000000
    20  C   -0.000009  -0.000000   0.000000   0.000000   0.000000  -0.000000
    21  C    0.000003   0.000000  -0.000000  -0.000000  -0.000000   0.000000
    22  C    0.000000   0.000000  -0.000000  -0.000000  -0.000000  -0.000000
    23  C   -0.000000   0.000000   0.000000   0.000000   0.000000  -0.000000
    24  C    0.000000  -0.000000  -0.000000  -0.000000  -0.000000   0.000000
    25  C    0.000001  -0.000000  -0.000000  -0.000000  -0.000000  -0.000000
    26  H   -0.000006   0.000000   0.000000  -0.000000   0.000000   0.000000
    27  H    0.000064   0.000000  -0.000000  -0.000000  -0.000000   0.000000
    28  H   -0.000043  -0.000001   0.000000  -0.000000  -0.000000  -0.000005
    29  H   -0.007037  -0.000133   0.000003  -0.000001   0.000036   0.000891
    30  H   -0.020173   0.001923  -0.000017  -0.000002   0.000022   0.000006
    31  H    0.511070   0.000063   0.000020  -0.000002  -0.000020   0.002117
    32  H    0.000063   0.554244  -0.008016  -0.000338   0.000081  -0.000362
    33  H    0.000020  -0.008016   0.562440  -0.007849  -0.000355   0.000082
    34  H   -0.000002  -0.000338  -0.007849   0.564616  -0.007779  -0.000337
    35  H   -0.000020   0.000081  -0.000355  -0.007779   0.562796  -0.007876
    36  H    0.002117  -0.000362   0.000082  -0.000337  -0.007876   0.548581
    37  H    0.000037  -0.000047   0.000002  -0.000000   0.000001  -0.000003
    38  H   -0.000001   0.000000  -0.000000   0.000000  -0.000000   0.000001
    39  H   -0.000003   0.000000   0.000000   0.000000   0.000000  -0.000001
    40  H   -0.000001   0.000000  -0.000000   0.000000   0.000000  -0.000000
    41  H   -0.000000   0.000000  -0.000000   0.000000  -0.000000  -0.000000
    42  H   -0.000000  -0.000000   0.000000   0.000000   0.000000  -0.000000
    43  H    0.000000   0.000000  -0.000000  -0.000000  -0.000000   0.000000
    44  H   -0.000000   0.000000   0.000000   0.000000   0.000000  -0.000000
              37         38         39         40         41         42
     1  N    0.000030   0.000000   0.000005   0.000674   0.003975   0.000020
     2  C    0.000056  -0.000006  -0.000017   0.000006   0.000771   0.000111
     3  C   -0.000005  -0.000011  -0.000046  -0.000125   0.000389  -0.000135
     4  N    0.000012  -0.000036  -0.000214   0.000347  -0.000047   0.000006
     5  C    0.000575  -0.000013  -0.000136   0.000084  -0.000005  -0.000000
     6  O    0.000884  -0.000000  -0.000000  -0.000002   0.000000  -0.000000
     7  C   -0.041904  -0.000083   0.000024  -0.000109   0.000001  -0.000000
     8  C   -0.003869  -0.000011   0.000010  -0.000004  -0.000000  -0.000000
     9  C   -0.001901  -0.000006  -0.000012  -0.000000  -0.000000  -0.000000
    10  C    0.001491  -0.000000  -0.000004  -0.000000  -0.000000  -0.000000
    11  C    0.000229   0.000000   0.000002   0.000000   0.000000   0.000000
    12  C   -0.000031  -0.000000  -0.000000  -0.000000  -0.000000  -0.000000
    13  C    0.000001  -0.000001  -0.000001  -0.000000  -0.000000  -0.000000
    14  C    0.000108   0.000018   0.000009   0.000000   0.000000   0.000000
    15  N    0.362153  -0.000354   0.001214  -0.000249   0.000000   0.000000
    16  C   -0.026573   0.004885  -0.017408  -0.001979  -0.000013  -0.000001
    17  O    0.007683   0.000295   0.016658   0.013229  -0.000025   0.000000
    18  O    0.005134  -0.035249  -0.051154  -0.002762   0.000015  -0.000001
    19  C   -0.000214   0.419771   0.422632  -0.003047  -0.000426   0.000044
    20  C    0.000234  -0.056997  -0.064054  -0.057278   0.009783  -0.000981
    21  C   -0.000066   0.007151  -0.007959   0.414937  -0.046014   0.009621
    22  C   -0.000007  -0.000233   0.000699  -0.032123   0.417379  -0.051871
    23  C    0.000001  -0.000015  -0.000040   0.008247  -0.050342   0.426608
    24  C   -0.000001   0.000552  -0.000343  -0.000762   0.007891  -0.056749
    25  C    0.000000  -0.005203   0.006537   0.007115  -0.000388   0.010065
    26  H    0.000000   0.000017   0.000012   0.000166  -0.000087   0.000329
    27  H   -0.000021  -0.000002  -0.000004   0.000005  -0.000025  -0.000007
    28  H   -0.000023  -0.000691   0.001972  -0.000513   0.000128  -0.000019
    29  H    0.006643   0.000108   0.000768   0.000059   0.000001   0.000000
    30  H    0.004535  -0.000000   0.000001  -0.000001   0.000000   0.000000
    31  H    0.000037  -0.000001  -0.000003  -0.000001  -0.000000  -0.000000
    32  H   -0.000047   0.000000   0.000000   0.000000   0.000000  -0.000000
    33  H    0.000002  -0.000000   0.000000  -0.000000  -0.000000   0.000000
    34  H   -0.000000   0.000000   0.000000   0.000000   0.000000   0.000000
    35  H    0.000001  -0.000000   0.000000   0.000000  -0.000000   0.000000
    36  H   -0.000003   0.000001  -0.000001  -0.000000  -0.000000  -0.000000
    37  H    0.435417   0.000031  -0.000060   0.000064  -0.000000   0.000000
    38  H    0.000031   0.566407  -0.026704   0.000237   0.000030  -0.000002
    39  H   -0.000060  -0.026704   0.557127   0.001858   0.000027   0.000001
    40  H    0.000064   0.000237   0.001858   0.546758  -0.008506  -0.000333
    41  H   -0.000000   0.000030   0.000027  -0.008506   0.574417  -0.009186
    42  H    0.000000  -0.000002   0.000001  -0.000333  -0.009186   0.615070
    43  H   -0.000000  -0.000036   0.000022   0.000073  -0.000427  -0.010031
    44  H    0.000000   0.004866   0.000457  -0.000374   0.000106  -0.000426
              43         44
     1  N    0.000000   0.000000
     2  C   -0.000002   0.000001
     3  C    0.000067  -0.000057
     4  N   -0.000018   0.000041
     5  C   -0.000001  -0.000017
     6  O   -0.000000   0.000000
     7  C    0.000000  -0.000009
     8  C    0.000000  -0.000000
     9  C    0.000000  -0.000000
    10  C    0.000000  -0.000000
    11  C   -0.000000   0.000000
    12  C    0.000000  -0.000000
    13  C    0.000000  -0.000000
    14  C   -0.000000   0.000000
    15  N   -0.000000   0.000005
    16  C    0.000000  -0.000100
    17  O   -0.000000   0.000004
    18  O    0.000009  -0.000451
    19  C   -0.000431  -0.007356
    20  C    0.010462  -0.059737
    21  C   -0.000974   0.007996
    22  C    0.009272  -0.000772
    23  C   -0.054839   0.008981
    24  C    0.422212  -0.042549
    25  C   -0.052815   0.416063
    26  H   -0.000065   0.000144
    27  H    0.000003  -0.000009
    28  H    0.000115   0.000026
    29  H   -0.000001   0.000122
    30  H   -0.000000   0.000000
    31  H    0.000000  -0.000000
    32  H    0.000000   0.000000
    33  H   -0.000000   0.000000
    34  H   -0.000000   0.000000
    35  H   -0.000000   0.000000
    36  H    0.000000  -0.000000
    37  H   -0.000000   0.000000
    38  H   -0.000036   0.004866
    39  H    0.000022   0.000457
    40  H    0.000073  -0.000374
    41  H   -0.000427   0.000106
    42  H   -0.010031  -0.000426
    43  H    0.618987  -0.010138
    44  H   -0.010138   0.610485
[...]
    34  H(1)              -0.00018      -0.80435      -0.28701      -0.26830
    35  H(1)              -0.00011      -0.48471      -0.17296      -0.16168
    36  H(1)              -0.00064      -2.88069      -1.02790      -0.96089
    37  H(1)               0.00030       1.32340       0.47222       0.44144
    38  H(1)              -0.00025      -1.11124      -0.39652      -0.37067
    39  H(1)               0.00217       9.70157       3.46176       3.23609
    40  H(1)              -0.00333     -14.87969      -5.30944      -4.96333
    41  H(1)               0.00030       1.34155       0.47870       0.44749
    42  H(1)              -0.00469     -20.97669      -7.48501      -6.99707
    43  H(1)              -0.00211      -9.44820      -3.37135      -3.15158
    44  H(1)              -0.00021      -0.93010      -0.33188      -0.31025
 --------------------------------------------------------
       Center         ----  Spin Dipole Couplings  ----
                      3XX-RR        3YY-RR        3ZZ-RR
 --------------------------------------------------------
     1   Atom       -0.003386      0.011697     -0.008311
     2   Atom       -0.001258      0.000900      0.000358
     3   Atom       -0.000899      0.002380     -0.001480
     4   Atom       -0.000412      0.009128     -0.008716
     5   Atom       -0.001945     -0.002211      0.004157
     6   Atom       -0.009797     -0.011264      0.021061
     7   Atom       -0.001592      0.001882     -0.000289
     8   Atom        0.000518     -0.000416     -0.000103
     9   Atom        0.000371      0.006416     -0.006788
    10   Atom        0.000359     -0.000055     -0.000304
    11   Atom        0.005917      0.012326     -0.018243
    12   Atom        0.001423      0.002495     -0.003918
    13   Atom        0.000823      0.001527     -0.002350
    14   Atom        0.004167      0.013708     -0.017875
    15   Atom       -0.002338      0.001863      0.000476
    16   Atom        0.007915     -0.001032     -0.006883
    17   Atom       -0.001946      0.037297     -0.035351
    18   Atom       -0.000826      0.033890     -0.033064
    19   Atom        0.004319      0.010668     -0.014987
    20   Atom       -0.059480      0.193106     -0.133626
    21   Atom       -0.027191      0.112809     -0.085618
    22   Atom        0.008999     -0.027041      0.018042
    23   Atom       -0.045345      0.181141     -0.135795
    24   Atom       -0.024028      0.078325     -0.054297
    25   Atom        0.005378     -0.010172      0.004793
    26   Atom        0.000144      0.002385     -0.002529
    27   Atom       -0.000463      0.001431     -0.000967
    28   Atom        0.000250      0.003190     -0.003441
    29   Atom        0.001502     -0.000328     -0.001175
    30   Atom        0.000502      0.000360     -0.000862
    31   Atom        0.000540      0.000115     -0.000655
    32   Atom        0.000286     -0.000432      0.000146
    33   Atom       -0.000074     -0.001635      0.001709
    34   Atom        0.000840      0.000102     -0.000942
    35   Atom       -0.000041     -0.000332      0.000373
    36   Atom        0.000436     -0.001720      0.001284
    37   Atom        0.000766     -0.000118     -0.000648
    38   Atom        0.003654      0.000693     -0.004347
    39   Atom        0.002929     -0.001066     -0.001863
    40   Atom       -0.006219     -0.005193      0.011412
    41   Atom        0.001457     -0.002519      0.001061
    42   Atom        0.018276      0.003481     -0.021757
    43   Atom       -0.003601     -0.004613      0.008214
    44   Atom        0.000078     -0.001932      0.001854
 --------------------------------------------------------
                        XY            XZ            YZ
 --------------------------------------------------------
     1   Atom        0.011397     -0.005187     -0.005887
     2   Atom       -0.001327      0.000483      0.001680
     3   Atom       -0.002191     -0.000509      0.000022
     4   Atom       -0.001337     -0.000969     -0.003623
     5   Atom       -0.000639      0.003796      0.001742
     6   Atom       -0.002530      0.009617     -0.006993
     7   Atom       -0.002110     -0.000794      0.004220
     8   Atom        0.000026      0.000214     -0.000123
     9   Atom       -0.010992      0.002992     -0.003835
    10   Atom        0.000369     -0.000524     -0.000704
    11   Atom       -0.032331      0.010447     -0.012834
    12   Atom       -0.007052      0.002396     -0.002543
    13   Atom       -0.002990      0.000766     -0.001588
    14   Atom       -0.030722      0.009121     -0.011657
    15   Atom       -0.003781      0.000544      0.002009
    16   Atom        0.013087      0.006562      0.007288
    17   Atom        0.052463      0.003081      0.008317
    18   Atom       -0.062233      0.001560      0.004648
    19   Atom       -0.012329     -0.000121     -0.002320
    20   Atom       -0.183538      0.057628     -0.108647
    21   Atom       -0.131068      0.038923     -0.064195
    22   Atom        0.030804     -0.015092      0.012800
    23   Atom       -0.197077      0.062968     -0.112200
    24   Atom       -0.081312      0.026255     -0.045904
    25   Atom        0.006548     -0.004959     -0.001080
    26   Atom       -0.002634      0.000726     -0.002109
    27   Atom       -0.000860      0.000089     -0.000738
    28   Atom       -0.004395      0.001851     -0.002264
    29   Atom       -0.000703      0.000956     -0.000097
    30   Atom       -0.000150      0.000037      0.000172
    31   Atom        0.000038      0.000097     -0.000321
    32   Atom       -0.000022     -0.000188      0.000373
    33   Atom       -0.001290     -0.002346     -0.001425
    34   Atom        0.000802     -0.000118     -0.000250
    35   Atom        0.000192      0.000407      0.000540
    36   Atom       -0.001720     -0.001739     -0.001260
    37   Atom       -0.000789     -0.000361      0.000233
    38   Atom        0.004834      0.004153      0.002277
    39   Atom        0.003166     -0.004932     -0.003404
    40   Atom       -0.005634     -0.010360     -0.003520
    41   Atom        0.002875     -0.001128      0.001076
    42   Atom        0.009477     -0.003814     -0.009379
    43   Atom       -0.003765     -0.008826     -0.001606
    44   Atom        0.002968      0.000095      0.002418
 --------------------------------------------------------


 ---------------------------------------------------------------------------------
              Anisotropic Spin Dipole Couplings in Principal Axis System
 ---------------------------------------------------------------------------------

       Atom             a.u.   MegaHertz   Gauss  10(-4) cm-1        Axes

              Baa    -0.0117    -0.452    -0.161    -0.151  0.6352 -0.1172  0.7634
     1 N(14)  Bbb    -0.0082    -0.315    -0.113    -0.105  0.6123 -0.5260 -0.5902
              Bcc     0.0199     0.767     0.274     0.256  0.4707  0.8424 -0.2623
 
              Baa    -0.0025    -0.329    -0.117    -0.110  0.7427  0.5108 -0.4329
     2 C(13)  Bbb    -0.0000    -0.003    -0.001    -0.001  0.6373 -0.3408  0.6912
              Bcc     0.0025     0.332     0.119     0.111 -0.2055  0.7892  0.5787
 
              Baa    -0.0023    -0.303    -0.108    -0.101  0.7823  0.3675  0.5029
     3 C(13)  Bbb    -0.0012    -0.166    -0.059    -0.055 -0.4298 -0.2659  0.8629
              Bcc     0.0035     0.468     0.167     0.156 -0.4508  0.8912  0.0500
 
              Baa    -0.0096    -0.370    -0.132    -0.123  0.1314  0.1975  0.9715
     4 N(14)  Bbb    -0.0004    -0.014    -0.005    -0.005  0.9853  0.0815 -0.1499
              Bcc     0.0100     0.384     0.137     0.128 -0.1088  0.9769 -0.1839
 
              Baa    -0.0046    -0.613    -0.219    -0.204  0.7427  0.5164 -0.4262
     5 C(13)  Bbb    -0.0016    -0.216    -0.077    -0.072 -0.5310  0.8421  0.0951
              Bcc     0.0062     0.829     0.296     0.277  0.4080  0.1557  0.8996
 
              Baa    -0.0132     0.953     0.340     0.318  0.6442  0.7644 -0.0248
     6 O(17)  Bbb    -0.0121     0.879     0.314     0.293  0.7148 -0.6133 -0.3361
              Bcc     0.0253    -1.832    -0.654    -0.611  0.2722 -0.1988  0.9415
 
              Baa    -0.0038    -0.513    -0.183    -0.171 -0.3611 -0.6374  0.6807
     7 C(13)  Bbb    -0.0020    -0.264    -0.094    -0.088  0.8889 -0.0147  0.4578
              Bcc     0.0058     0.777     0.277     0.259 -0.2818  0.7704  0.5719
 
              Baa    -0.0005    -0.063    -0.022    -0.021 -0.1051  0.9223  0.3719
     8 C(13)  Bbb    -0.0001    -0.016    -0.006    -0.005 -0.2806 -0.3863  0.8787
              Bcc     0.0006     0.079     0.028     0.026  0.9540 -0.0120  0.2994
 
              Baa    -0.0080    -1.076    -0.384    -0.359  0.7997  0.5380 -0.2665
     9 C(13)  Bbb    -0.0078    -1.049    -0.374    -0.350  0.0941  0.3261  0.9406
              Bcc     0.0158     2.126     0.758     0.709 -0.5930  0.7773 -0.2101
 
              Baa    -0.0009    -0.124    -0.044    -0.041  0.1592  0.5809  0.7982
    10 C(13)  Bbb    -0.0002    -0.021    -0.008    -0.007  0.7357 -0.6090  0.2964
              Bcc     0.0011     0.145     0.052     0.048  0.6583  0.5400 -0.5244
 
              Baa    -0.0239    -3.205    -1.144    -1.069  0.5467  0.6673  0.5058
    11 C(13)  Bbb    -0.0220    -2.950    -1.053    -0.984 -0.5307 -0.1911  0.8258
              Bcc     0.0459     6.155     2.196     2.053 -0.6477  0.7198 -0.2496
 
              Baa    -0.0051    -0.686    -0.245    -0.229  0.7448  0.6619 -0.0844
    12 C(13)  Bbb    -0.0048    -0.644    -0.230    -0.215 -0.1021  0.2381  0.9659
              Bcc     0.0099     1.330     0.475     0.444 -0.6594  0.7108 -0.2449
 
              Baa    -0.0030    -0.397    -0.142    -0.132  0.1467  0.4155  0.8977
    13 C(13)  Bbb    -0.0016    -0.220    -0.079    -0.074  0.7610  0.5324 -0.3708
              Bcc     0.0046     0.617     0.220     0.206 -0.6320  0.7375 -0.2381
 
              Baa    -0.0225    -3.023    -1.079    -1.008  0.5801  0.6498  0.4911
    14 C(13)  Bbb    -0.0211    -2.826    -1.008    -0.943 -0.5154 -0.1741  0.8391
              Bcc     0.0436     5.849     2.087     1.951 -0.6308  0.7399 -0.2339
 
              Baa    -0.0050    -0.192    -0.069    -0.064  0.8059  0.5251 -0.2734
    15 N(14)  Bbb     0.0004     0.014     0.005     0.005  0.4111 -0.1641  0.8967
              Bcc     0.0046     0.179     0.064     0.060 -0.4260  0.8351  0.3481
 
              Baa    -0.0123    -1.652    -0.589    -0.551 -0.2476  0.7120 -0.6570
    16 C(13)  Bbb    -0.0083    -1.116    -0.398    -0.372 -0.6078  0.4140  0.6777
              Bcc     0.0206     2.768     0.988     0.923  0.7545  0.5671  0.3303
 
              Baa    -0.0397     2.870     1.024     0.957  0.6810 -0.5199  0.5157
    17 O(17)  Bbb    -0.0347     2.510     0.896     0.837 -0.4635  0.2392  0.8532
              Bcc     0.0744    -5.381    -1.920    -1.795  0.5670  0.8200  0.0781
 
              Baa    -0.0491     3.553     1.268     1.185  0.7689  0.5903 -0.2458
    18 O(17)  Bbb    -0.0321     2.323     0.829     0.775  0.2101  0.1299  0.9690
              Bcc     0.0812    -5.876    -2.097    -1.960 -0.6039  0.7967  0.0242
 
              Baa    -0.0153    -2.053    -0.733    -0.685  0.0877  0.1299  0.9876
    19 C(13)  Bbb    -0.0050    -0.672    -0.240    -0.224  0.7879  0.5976 -0.1486
              Bcc     0.0203     2.726     0.973     0.909 -0.6095  0.7912 -0.0499
 
              Baa    -0.1668   -22.381    -7.986    -7.466 -0.1563  0.2116  0.9648
    20 C(13)  Bbb    -0.1560   -20.928    -7.468    -6.981  0.8795  0.4744  0.0384
              Bcc     0.3227    43.309    15.454    14.446 -0.4496  0.8545 -0.2602
 
              Baa    -0.1059   -14.209    -5.070    -4.740  0.8586  0.4349 -0.2714
    21 C(13)  Bbb    -0.1045   -14.030    -5.006    -4.680  0.1187  0.3464  0.9305
              Bcc     0.2104    28.238    10.076     9.419 -0.4987  0.8312 -0.2458
 
              Baa    -0.0499    -6.690    -2.387    -2.232 -0.4997  0.8242 -0.2665
    22 C(13)  Bbb     0.0182     2.443     0.872     0.815  0.4135  0.4973  0.7627
              Bcc     0.0317     4.247     1.516     1.417  0.7611  0.2710 -0.5893
 
              Baa    -0.1715   -23.013    -8.212    -7.676 -0.0157  0.2952  0.9553
    23 C(13)  Bbb    -0.1592   -21.360    -7.622    -7.125  0.8760  0.4647 -0.1292
              Bcc     0.3307    44.373    15.834    14.801 -0.4821  0.8348 -0.2659
 
              Baa    -0.0697    -9.347    -3.335    -3.118  0.7221  0.1905 -0.6650
    24 C(13)  Bbb    -0.0681    -9.142    -3.262    -3.049  0.5104  0.5022  0.6981
              Bcc     0.1378    18.489     6.597     6.167 -0.4669  0.8435 -0.2654
 
              Baa    -0.0126    -1.690    -0.603    -0.564 -0.3524  0.9349 -0.0424
    25 C(13)  Bbb     0.0011     0.142     0.051     0.047  0.5491  0.2433  0.7995
              Bcc     0.0115     1.548     0.552     0.516  0.7578  0.2585 -0.5991
 
              Baa    -0.0033    -1.778    -0.635    -0.593  0.0993  0.3842  0.9179
    26 H(1)   Bbb    -0.0014    -0.767    -0.274    -0.256  0.8558  0.4376 -0.2758
              Bcc     0.0048     2.545     0.908     0.849 -0.5076  0.8129 -0.2854
 
              Baa    -0.0012    -0.651    -0.232    -0.217  0.2822  0.3412  0.8966
    27 H(1)   Bbb    -0.0007    -0.385    -0.137    -0.129  0.8991  0.2321 -0.3712
              Bcc     0.0019     1.036     0.370     0.346 -0.3348  0.9109 -0.2413
 
              Baa    -0.0043    -2.277    -0.812    -0.759 -0.2566  0.1391  0.9564
    28 H(1)   Bbb    -0.0029    -1.543    -0.551    -0.515  0.7826  0.6106  0.1212
              Bcc     0.0072     3.819     1.363     1.274 -0.5671  0.7796 -0.2656
 
              Baa    -0.0015    -0.798    -0.285    -0.266 -0.3269 -0.1190  0.9375
    29 H(1)   Bbb    -0.0005    -0.278    -0.099    -0.093  0.2346  0.9508  0.2025
              Bcc     0.0020     1.076     0.384     0.359  0.9155 -0.2862  0.2829
 
              Baa    -0.0009    -0.474    -0.169    -0.158 -0.0414 -0.1412  0.9891
    30 H(1)   Bbb     0.0003     0.154     0.055     0.051  0.5524  0.8216  0.1404
              Bcc     0.0006     0.320     0.114     0.107  0.8325 -0.5522 -0.0440
 
              Baa    -0.0008    -0.416    -0.148    -0.139 -0.0787  0.3393  0.9374
    31 H(1)   Bbb     0.0002     0.123     0.044     0.041 -0.0088  0.9400 -0.3410
              Bcc     0.0005     0.293     0.104     0.098  0.9969  0.0351  0.0710
 
              Baa    -0.0006    -0.331    -0.118    -0.110 -0.0720  0.8897 -0.4509
    32 H(1)   Bbb     0.0001     0.070     0.025     0.023  0.7419  0.3499  0.5719
              Bcc     0.0005     0.261     0.093     0.087 -0.6666  0.2933  0.6853
 
              Baa    -0.0035    -1.893    -0.676    -0.632  0.5580  0.7037  0.4397
    33 H(1)   Bbb     0.0002     0.094     0.034     0.031 -0.6355  0.7032 -0.3188
              Bcc     0.0034     1.799     0.642     0.600 -0.5336 -0.1015  0.8396
 
              Baa    -0.0010    -0.534    -0.191    -0.178 -0.0485  0.2540  0.9660
    34 H(1)   Bbb    -0.0004    -0.200    -0.072    -0.067 -0.5507  0.8001 -0.2380
              Bcc     0.0014     0.735     0.262     0.245  0.8333  0.5435 -0.1011
 
              Baa    -0.0006    -0.334    -0.119    -0.111  0.0583  0.8679 -0.4932
    35 H(1)   Bbb    -0.0003    -0.137    -0.049    -0.046  0.8977 -0.2618 -0.3545
              Bcc     0.0009     0.471     0.168     0.157  0.4368  0.4221  0.7944
 
              Baa    -0.0035    -1.864    -0.665    -0.622  0.5083  0.7689  0.3879
    36 H(1)   Bbb     0.0008     0.449     0.160     0.150 -0.5890  0.6390 -0.4948
              Bcc     0.0027     1.415     0.505     0.472 -0.6283  0.0230  0.7776
 
              Baa    -0.0007    -0.397    -0.142    -0.132  0.1251 -0.2044  0.9709
    37 H(1)   Bbb    -0.0006    -0.309    -0.110    -0.103  0.5249  0.8440  0.1101
              Bcc     0.0013     0.705     0.252     0.235  0.8419 -0.4958 -0.2129
 
              Baa    -0.0061    -3.267    -1.166    -1.090 -0.3709 -0.0468  0.9275
    38 H(1)   Bbb    -0.0028    -1.480    -0.528    -0.494 -0.5217  0.8367 -0.1664
              Bcc     0.0089     4.747     1.694     1.583  0.7683  0.5456  0.3347
 
              Baa    -0.0055    -2.931    -1.046    -0.978  0.3435  0.4057  0.8470
    39 H(1)   Bbb    -0.0027    -1.452    -0.518    -0.484 -0.5792  0.8015 -0.1490
              Bcc     0.0082     4.383     1.564     1.462  0.7393  0.4394 -0.5102
 
              Baa    -0.0153    -8.168    -2.915    -2.725  0.7540  0.5466  0.3643
    40 H(1)   Bbb    -0.0009    -0.494    -0.176    -0.165 -0.5133  0.8363 -0.1925
              Bcc     0.0162     8.662     3.091     2.889 -0.4099 -0.0419  0.9112
 
              Baa    -0.0044    -2.362    -0.843    -0.788 -0.4638  0.8465 -0.2613
    41 H(1)   Bbb     0.0013     0.703     0.251     0.235  0.1296  0.3566  0.9252
              Bcc     0.0031     1.658     0.592     0.553  0.8764  0.3953 -0.2750
 
              Baa    -0.0249   -13.270    -4.735    -4.426  0.0161  0.3092  0.9509
    42 H(1)   Bbb     0.0007     0.364     0.130     0.121 -0.5010  0.8255 -0.2599
              Bcc     0.0242    12.906     4.605     4.305  0.8653  0.4722 -0.1682
 
              Baa    -0.0109    -5.838    -2.083    -1.947  0.7452  0.5418  0.3888
    43 H(1)   Bbb    -0.0020    -1.063    -0.379    -0.355 -0.4685  0.8402 -0.2730
              Bcc     0.0129     6.901     2.463     2.302 -0.4745  0.0213  0.8800
 
              Baa    -0.0047    -2.481    -0.885    -0.828 -0.5038  0.8121 -0.2945
    44 H(1)   Bbb     0.0009     0.480     0.171     0.160  0.7350  0.2238 -0.6401
              Bcc     0.0038     2.001     0.714     0.668  0.4539  0.5390  0.7096
 

 ---------------------------------------------------------------------------------

 1\1\ WCSS.PL-BEM-CABANO\SP\UM062X\6-311G(d,p)\C19H19N3O3(1-,2)\GABRIEL
 \11-Feb-2022\0\\#n m062x/6-311G(d,p) SP scf=maxcycle=1000 maxdisk=100G
 b\\chembl344174sp\\-1,2\N,0,3.22224,2.54684,1.62769\C,0,2.84302,2.3306
 4,0.56598\C,0,2.36741,2.03207,-0.79877\N,0,1.1637,1.23453,-0.80485\C,0
 ,-0.04296,1.82018,-0.55219\O,0,-0.1833,3.01946,-0.46885\C,0,-1.19885,0
 .82551,-0.345\C,0,-2.54352,1.55038,-0.38933\C,0,-3.70197,0.59099,-0.29
 309\C,0,-4.37974,0.39755,0.9087\C,0,-5.42705,-0.51331,0.99691\C,0,-5.8
 0965,-1.24524,-0.12083\C,0,-5.14113,-1.05958,-1.32675\C,0,-4.09632,-0.
 14782,-1.40955\N,0,-1.02765,0.15081,0.93624\C,0,-0.21953,-0.91732,1.16
 921\O,0,0.09269,-1.32471,2.25751\O,0,0.18808,-1.47752,-0.00242\C,0,1.2
 055,-2.49242,0.09875\C,0,2.55762,-1.8599,-0.10989\C,0,3.17578,-1.16523
 ,0.93318\C,0,4.39456,-0.52877,0.72405\C,0,5.00368,-0.57991,-0.52703\C,
 0,4.38887,-1.26218,-1.57275\C,0,3.16753,-1.89636,-1.36348\H,0,3.15682,
 1.4954,-1.32723\H,0,2.1704,2.97863,-1.30431\H,0,1.24777,0.22809,-0.768
 42\H,0,-1.1638,0.06042,-1.12263\H,0,-2.57241,2.28785,0.41723\H,0,-2.58
 834,2.11765,-1.32152\H,0,-4.09117,0.9725,1.78283\H,0,-5.9441,-0.64974,
 1.93922\H,0,-6.62641,-1.95374,-0.05432\H,0,-5.4376,-1.62188,-2.20445\H
 ,0,-3.58402,0.00063,-2.35555\H,0,-1.27961,0.65717,1.77327\H,0,0.97926,
 -3.20813,-0.69019\H,0,1.12776,-2.97214,1.07336\H,0,2.69268,-1.12144,1.
 90389\H,0,4.86022,0.01722,1.53521\H,0,5.95712,-0.08949,-0.68495\H,0,4.
 86123,-1.30671,-2.54697\H,0,2.68702,-2.43093,-2.17663\\Version=ES64L-G
 09RevE.01\State=2-A\HF=-1125.2329589\S2=0.7558\S2-1=0.\S2A=0.750019\RM
 SD=5.862e-09\Dipole=-3.8557598,0.353414,-1.5169539\Quadrupole=-23.2652
 977,4.9608368,18.304461,7.3235139,-6.992899,-0.7009213\PG=C01 [X(C19H1
 9N3O3)]\\@


 IN SO FAR AS QUANTUM MECHANICS IS CORRECT, CHEMICAL 
 QUESTIONS ARE PROBLEMS IN APPLIED MATHEMATICS.

                    -- EYRING, WALTER, & KIMBALL, 1944
 Job cpu time:       0 days  2 hours 39 minutes 44.6 seconds.
 File lengths (MBytes):  RWF=    302 Int=      0 D2E=      0 Chk=     21 Scr=      1
 Normal termination of Gaussian 09 at Fri Feb 11 12:26:12 2022.
